; Created by Sobtop (http://sobereva.com/soft/sobtop) Version 1.0(dev5) on 2025-02-04

[ moleculetype ]
; name          nrexcl
acn       3

[ atoms ]
;  Index   type   residue  resname   atom        cgnr     charge       mass
     1     c3         1      MOL     C1            1   -0.37485505   12.010736
     2     hc         1      MOL     H2            2    0.15880146    1.007941
     3     hc         1      MOL     H3            3    0.15880146    1.007941
     4     hc         1      MOL     H4            4    0.15880146    1.007941
     5     c1         1      MOL     C5            5    0.43528302   12.010736
     6     n1         1      MOL     N6            6   -0.53683236   14.006703
 
[ bonds ]
; atom_i  atom_j  functype      r0 (nm)    k (kJ/mol/nm^2)
    1       2         1        0.109690     2.766461E+05     ; C1-H2, prebuilt c3-hc
    1       3         1        0.109690     2.766461E+05     ; C1-H3, prebuilt c3-hc
    1       4         1        0.109690     2.766461E+05     ; C1-H4, prebuilt c3-hc
    1       5         1        0.146710     3.109549E+05     ; C1-C5, prebuilt c1-c3
    5       6         1        0.115350     7.988093E+05     ; C5-N6, prebuilt c1-n1
 
[ angles ]
; atom_i  atom_j  atom_k  functype    a0 (Deg.)  k (kJ/mol/rad^2)
    2       1       3         1       107.580      3.296992E+02     ; H2-C1-H3, prebuilt hc-c3-hc
    2       1       4         1       107.580      3.296992E+02     ; H2-C1-H4, prebuilt hc-c3-hc
    2       1       5         1       109.410      4.050112E+02     ; H2-C1-C5, prebuilt c1-c3-hc
    3       1       4         1       107.580      3.296992E+02     ; H3-C1-H4, prebuilt hc-c3-hc
    3       1       5         1       109.410      4.050112E+02     ; H3-C1-C5, prebuilt c1-c3-hc
    4       1       5         1       109.410      4.050112E+02     ; H4-C1-C5, prebuilt c1-c3-hc
    1       5       6         1       178.580      4.853440E+02     ; C1-C5-N6, prebuilt c3-c1-n1

; No pair needs to generate

; No improper needs to generate
