; Created by Sobtop (http://sobereva.com/soft/sobtop) Version 1.0(dev5) on 2025-02-04

[ defaults ]
; nbfunc        comb-rule       gen-pairs       fudgeLJ    fudgeQQ
     1              2              yes            0.5       0.8333

#include "AN.itp"

[ system ]
acn

[ molecules ]
; Molecule      nmols
acn     1336
