C2
  112
    1MOL     P1    1   1.945   1.826   1.745
    1MOL     O2    2   2.071   2.144   2.037
    1MOL     O3    3   1.928   1.940   1.859
    1MOL     O4    4   1.932   1.878   2.243
    1MOL     O5    5   2.057   1.734   1.817
    1MOL     O6    6   2.296   2.052   2.209
    1MOL     O7    7   1.702   2.338   2.597
    1MOL     O8    8   1.703   2.101   1.707
    1MOL     O9    9   2.894   2.291   2.128
    1MOL    N10   10   2.302   2.133   1.982
    1MOL    N11   11   1.865   1.808   1.588
    1MOL    N12   12   2.513   2.106   2.126
    1MOL    N13   13   2.719   2.179   2.048
    1MOL    N14   14   2.281   1.334   1.690
    1MOL    C15   15   2.007   1.925   1.973
    1MOL    C16   16   1.982   2.037   2.072
    1MOL    C17   17   2.153   1.943   1.941
    1MOL    C18   18   2.166   2.094   1.942
    1MOL    C19   19   2.012   1.989   2.214
    1MOL    C20   20   1.799   1.919   2.232
    1MOL    C21   21   2.392   2.215   1.893
    1MOL    C22   22   2.364   2.092   2.117
    1MOL    C23   23   1.773   2.030   2.329
    1MOL    C24   24   1.774   1.967   2.093
    1MOL    C25   25   1.708   1.804   2.262
    1MOL    C26   26   1.743   1.734   1.578
    1MOL    C27   27   1.923   1.868   1.471
    1MOL    C28   28   2.523   2.232   1.919
    1MOL    C29   29   1.695   1.733   1.433
    1MOL    C30   30   1.767   1.590   1.624
    1MOL    C31   31   1.824   1.968   1.411
    1MOL    C32   32   2.051   1.941   1.509
    1MOL    C33   33   1.708   2.146   2.287
    1MOL    C34   34   1.745   2.102   2.070
    1MOL    C35   35   1.815   2.018   2.462
    1MOL    C36   36   1.779   1.878   1.986
    1MOL    C37   37   2.585   2.171   2.034
    1MOL    C38   38   1.761   1.680   2.296
    1MOL    C39   39   1.570   1.822   2.258
    1MOL    C40   40   2.099   1.621   1.745
    1MOL    C41   41   1.684   2.250   2.377
    1MOL    C42   42   1.721   2.147   1.940
    1MOL    C43   43   1.791   2.122   2.552
    1MOL    C44   44   1.755   1.923   1.856
    1MOL    C45   45   1.677   1.573   2.324
    1MOL    C46   46   1.485   1.715   2.286
    1MOL    C47   47   1.725   2.237   2.509
    1MOL    C48   48   1.726   2.057   1.833
    1MOL    C49   49   1.538   1.590   2.319
    1MOL    C50   50   2.203   1.545   1.825
    1MOL    C51   51   2.774   2.284   2.116
    1MOL    C52   52   2.247   1.427   1.750
    1MOL    C53   53   2.695   2.380   2.169
    1MOL    C54   54   1.751   2.306   2.724
    1MOL    C55   55   1.676   2.239   1.706
    1MOL    C56   56   2.717   2.514   2.137
    1MOL    C57   57   2.592   2.344   2.255
    1MOL    C58   58   2.635   2.613   2.191
    1MOL    C59   59   2.510   2.443   2.310
    1MOL    C60   60   2.532   2.577   2.278
    1MOL    H61   61   1.982   1.824   2.012
    1MOL    H62   62   1.876   2.070   2.069
    1MOL    H63   63   2.179   1.901   1.842
    1MOL    H64   64   2.222   1.892   2.013
    1MOL    H65   65   2.148   2.136   1.840
    1MOL    H66   66   1.990   2.071   2.286
    1MOL    H67   67   2.120   1.960   2.222
    1MOL    H68   68   2.349   2.263   1.804
    1MOL    H69   69   1.665   1.781   1.642
    1MOL    H70   70   1.946   1.789   1.396
    1MOL    H71   71   2.583   2.294   1.852
    1MOL    H72   72   1.601   1.676   1.425
    1MOL    H73   73   1.678   1.838   1.400
    1MOL    H74   74   1.773   1.686   1.369
    1MOL    H75   75   1.672   1.532   1.616
    1MOL    H76   76   1.802   1.591   1.729
    1MOL    H77   77   1.845   1.543   1.559
    1MOL    H78   78   1.870   2.069   1.410
    1MOL    H79   79   1.732   1.970   1.473
    1MOL    H80   80   1.799   1.937   1.307
    1MOL    H81   81   2.096   1.988   1.418
    1MOL    H82   82   2.123   1.869   1.553
    1MOL    H83   83   2.028   2.020   1.584
    1MOL    H84   84   1.675   2.156   2.182
    1MOL    H85   85   1.740   2.173   2.154
    1MOL    H86   86   1.866   1.927   2.495
    1MOL    H87   87   1.802   1.772   2.004
    1MOL    H88   88   1.871   1.666   2.300
    1MOL    H89   89   1.528   1.920   2.231
    1MOL    H90   90   2.011   1.555   1.726
    1MOL    H91   91   2.143   1.653   1.648
    1MOL    H92   92   1.632   2.341   2.343
    1MOL    H93   93   1.698   2.253   1.921
    1MOL    H94   94   1.823   2.112   2.656
    1MOL    H95   95   1.759   1.852   1.772
    1MOL    H96   96   1.719   1.475   2.350
    1MOL    H97   97   1.376   1.729   2.282
    1MOL    H98   98   2.778   2.107   2.008
    1MOL    H99   99   1.471   1.506   2.342
    1MOL   H100  100   2.291   1.612   1.844
    1MOL   H101  101   2.159   1.513   1.922
    1MOL   H102  102   1.731   2.390   2.795
    1MOL   H103  103   1.701   2.214   2.761
    1MOL   H104  104   1.861   2.288   2.718
    1MOL   H105  105   1.657   2.272   1.601
    1MOL   H106  106   1.586   2.259   1.768
    1MOL   H107  107   1.763   2.294   1.747
    1MOL   H108  108   2.799   2.541   2.068
    1MOL   H109  109   2.574   2.239   2.281
    1MOL   H110  110   2.652   2.718   2.166
    1MOL   H111  111   2.428   2.416   2.378
    1MOL   H112  112   2.467   2.655   2.321
   0.00000   0.00000   0.00000
