; Created by Sobtop (http://sobereva.com/soft/sobtop) Version 1.0(dev5) on 2025-02-04



#include "amber99.ff/forcefield.itp"

[ atomtypes ]
; name   at.num      mass       charge   ptype     sigma (nm)    epsilon (kJ/mol)
p3          15    30.973762    0.000000    A      3.741775E-01    8.368000E-01
os           8    15.999405    0.000000    A      3.000012E-01    7.112800E-01
o            8    15.999405    0.000000    A      2.959922E-01    8.786400E-01
n            7    14.006703    0.000000    A      3.249999E-01    7.112800E-01
n3           7    14.006703    0.000000    A      3.249999E-01    7.112800E-01
nc           7    14.006703    0.000000    A      3.249999E-01    7.112800E-01
n1           7    14.006703    0.000000    A      3.249999E-01    7.112800E-01
c3           6    12.010736    0.000000    A      3.399670E-01    4.577296E-01
cc           6    12.010736    0.000000    A      3.399670E-01    3.598240E-01
c            6    12.010736    0.000000    A      3.399670E-01    3.598240E-01
ca           6    12.010736    0.000000    A      3.399670E-01    3.598240E-01
c1           6    12.010736    0.000000    A      3.399670E-01    8.786400E-01
h1           1     1.007941    0.000000    A      2.471353E-01    6.568880E-02
hc           1     1.007941    0.000000    A      2.649533E-01    6.568880E-02
h2           1     1.007941    0.000000    A      2.293173E-01    6.568880E-02
h4           1     1.007941    0.000000    A      2.510553E-01    6.276000E-02
ha           1     1.007941    0.000000    A      2.599642E-01    6.276000E-02
hn           1     1.007941    0.000000    A      1.069078E-01    6.568880E-02

#include "C.itp"
#include "AN.itp"
#include "amber99.ff/tip3p.itp"

[ system ]
C2 in acn in water

[ molecules ]
; Molecule      nmols
C2      1
acn               975
