acn
     6
    1MOL     C1    1  -0.118   0.000  -0.000
    1MOL     H2    2  -0.155  -0.096  -0.038
    1MOL     H3    3  -0.155   0.081  -0.064
    1MOL     H4    4  -0.155   0.015   0.102
    1MOL     C5    5   0.028  -0.000   0.000
    1MOL     N6    6   0.144   0.000  -0.000
   0.00000   0.00000   0.00000   0.00000   0.00000   0.00000   0.00000   0.00000   0.00000
