; Created by Sobtop (http://sobereva.com/soft/sobtop) Version 1.0(dev3.1) on 2023-09-16


[ moleculetype ]
; name          nrexcl
C2       3

[ atoms ]
;  Index   type   residue  resname   atom        cgnr     charge       mass
     1     p3         1      MOL     P1            1   -0.28335911   30.973762
     2     os         1      MOL     O2            2   -0.58108943   15.999405
     3     os         1      MOL     O3            3   -0.21449795   15.999405
     4     os         1      MOL     O4            4   -0.22964120   15.999405
     5     os         1      MOL     O5            5   -0.24070717   15.999405
     6     o          1      MOL     O6            6   -0.68905025   15.999405
     7     os         1      MOL     O7            7   -0.36842647   15.999405
     8     os         1      MOL     O8            8   -0.21594663   15.999405
     9     o          1      MOL     O9            9   -0.57326033   15.999405
    10     n          1      MOL     N10          10   -0.07511023   14.006703
    11     n3         1      MOL     N11          11    0.06359884   14.006703
    12     nc         1      MOL     N12          12   -0.89452102   14.006703
    13     n          1      MOL     N13          13   -0.60454414   14.006703
    14     n1         1      MOL     N14          14   -0.55680113   14.006703
    15     c3         1      MOL     C15          15    0.43295335   12.010736
    16     c3         1      MOL     C16          16    0.41382435   12.010736
    17     c3         1      MOL     C17          17   -0.69983777   12.010736
    18     c3         1      MOL     C18          18    0.34968186   12.010736
    19     c3         1      MOL     C19          19   -0.12062269   12.010736
    20     c3         1      MOL     C20          20   -0.45186765   12.010736
    21     cc         1      MOL     C21          21    0.06599020   12.010736
    22     c          1      MOL     C22          22    0.91744585   12.010736
    23     ca         1      MOL     C23          23    0.23089140   12.010736
    24     ca         1      MOL     C24          24    0.13793110   12.010736
    25     ca         1      MOL     C25          25    0.33192649   12.010736
    26     c3         1      MOL     C26          26    0.41180812   12.010736
    27     c3         1      MOL     C27          27    0.30467054   12.010736
    28     cc         1      MOL     C28          28   -0.64239730   12.010736
    29     c3         1      MOL     C29          29   -0.37211577   12.010736
    30     c3         1      MOL     C30          30   -0.30557214   12.010736
    31     c3         1      MOL     C31          31   -0.29507144   12.010736
    32     c3         1      MOL     C32          32   -0.32405198   12.010736
    33     ca         1      MOL     C33          33   -0.10403206   12.010736
    34     ca         1      MOL     C34          34   -0.19385736   12.010736
    35     ca         1      MOL     C35          35   -0.23923584   12.010736
    36     ca         1      MOL     C36          36   -0.04077894   12.010736
    37     cc         1      MOL     C37          37    0.89699840   12.010736
    38     ca         1      MOL     C38          38   -0.15938506   12.010736
    39     ca         1      MOL     C39          39   -0.20875699   12.010736
    40     c3         1      MOL     C40          40    0.09207652   12.010736
    41     ca         1      MOL     C41          41   -0.41927509   12.010736
    42     ca         1      MOL     C42          42   -0.26834571   12.010736
    43     ca         1      MOL     C43          43   -0.29186100   12.010736
    44     ca         1      MOL     C44          44   -0.38290053   12.010736
    45     ca         1      MOL     C45          45   -0.18186145   12.010736
    46     ca         1      MOL     C46          46   -0.16810343   12.010736
    47     ca         1      MOL     C47          47    0.46665828   12.010736
    48     ca         1      MOL     C48          48    0.35146268   12.010736
    49     ca         1      MOL     C49          49   -0.13569742   12.010736
    50     c3         1      MOL     C50          50   -0.14641642   12.010736
    51     c          1      MOL     C51          51    0.62761636   12.010736
    52     c1         1      MOL     C52          52    0.38318557   12.010736
    53     ca         1      MOL     C53          53   -0.01077615   12.010736
    54     c3         1      MOL     C54          54    0.04126113   12.010736
    55     c3         1      MOL     C55          55   -0.21421008   12.010736
    56     ca         1      MOL     C56          56   -0.19070102   12.010736
    57     ca         1      MOL     C57          57   -0.11152247   12.010736
    58     ca         1      MOL     C58          58   -0.08815448   12.010736
    59     ca         1      MOL     C59          59   -0.11852513   12.010736
    60     ca         1      MOL     C60          60   -0.11525860   12.010736
    61     h1         1      MOL     H61          61    0.08634168    1.007941
    62     h1         1      MOL     H62          62    0.00106161    1.007941
    63     hc         1      MOL     H63          63    0.20608793    1.007941
    64     hc         1      MOL     H64          64    0.20608793    1.007941
    65     h2         1      MOL     H65          65    0.08302609    1.007941
    66     h1         1      MOL     H66          66    0.11289571    1.007941
    67     h1         1      MOL     H67          67    0.11289571    1.007941
    68     h4         1      MOL     H68          68    0.16766374    1.007941
    69     h1         1      MOL     H69          69   -0.01136486    1.007941
    70     h1         1      MOL     H70          70    0.00206724    1.007941
    71     ha         1      MOL     H71          71    0.27040227    1.007941
    72     hc         1      MOL     H72          72    0.07732416    1.007941
    73     hc         1      MOL     H73          73    0.07732416    1.007941
    74     hc         1      MOL     H74          74    0.07732416    1.007941
    75     hc         1      MOL     H75          75    0.06303607    1.007941
    76     hc         1      MOL     H76          76    0.06303607    1.007941
    77     hc         1      MOL     H77          77    0.06303607    1.007941
    78     hc         1      MOL     H78          78    0.06274552    1.007941
    79     hc         1      MOL     H79          79    0.06274552    1.007941
    80     hc         1      MOL     H80          80    0.06274552    1.007941
    81     hc         1      MOL     H81          81    0.07058013    1.007941
    82     hc         1      MOL     H82          82    0.07058013    1.007941
    83     hc         1      MOL     H83          83    0.07058013    1.007941
    84     ha         1      MOL     H84          84    0.14975030    1.007941
    85     ha         1      MOL     H85          85    0.17097957    1.007941
    86     ha         1      MOL     H86          86    0.18814039    1.007941
    87     ha         1      MOL     H87          87    0.11378347    1.007941
    88     ha         1      MOL     H88          88    0.12048687    1.007941
    89     ha         1      MOL     H89          89    0.13772845    1.007941
    90     h1         1      MOL     H90          90    0.07233279    1.007941
    91     h1         1      MOL     H91          91    0.07233279    1.007941
    92     ha         1      MOL     H92          92    0.18111937    1.007941
    93     ha         1      MOL     H93          93    0.15926926    1.007941
    94     ha         1      MOL     H94          94    0.16131236    1.007941
    95     ha         1      MOL     H95          95    0.16516912    1.007941
    96     ha         1      MOL     H96          96    0.14484669    1.007941
    97     ha         1      MOL     H97          97    0.14391106    1.007941
    98     hn         1      MOL     H98          98    0.36766455    1.007941
    99     ha         1      MOL     H99          99    0.13423231    1.007941
   100     hc         1      MOL     H100        100    0.12131487    1.007941
   101     hc         1      MOL     H101        101    0.12131487    1.007941
   102     h1         1      MOL     H102        102    0.05984530    1.007941
   103     h1         1      MOL     H103        103    0.05984530    1.007941
   104     h1         1      MOL     H104        104    0.05984530    1.007941
   105     h1         1      MOL     H105        105    0.12022483    1.007941
   106     h1         1      MOL     H106        106    0.12022483    1.007941
   107     h1         1      MOL     H107        107    0.12022483    1.007941
   108     ha         1      MOL     H108        108    0.15394457    1.007941
   109     ha         1      MOL     H109        109    0.12767870    1.007941
   110     ha         1      MOL     H110        110    0.13141189    1.007941
   111     ha         1      MOL     H111        111    0.13483785    1.007941
   112     ha         1      MOL     H112        112    0.13617079    1.007941
 
[ bonds ]
; atom_i  atom_j  functype      r0 (nm)    k (kJ/mol/nm^2)
    1       3         1        0.167440     2.348898E+05     ; P1-O3, prebuilt os-p3
    1       5         1        0.167440     2.348898E+05     ; P1-O5, prebuilt os-p3
    1      11         1        0.173000     2.617510E+05     ; P1-N11, prebuilt n3-p3
    2      16         1        0.143160     2.582365E+05     ; O2-C16, prebuilt c3-os
    2      18         1        0.143160     2.582365E+05     ; O2-C18, prebuilt c3-os
    3      15         1        0.143160     2.582365E+05     ; O3-C15, prebuilt c3-os
    4      19         1        0.143160     2.582365E+05     ; O4-C19, prebuilt c3-os
    4      20         1        0.143160     2.582365E+05     ; O4-C20, prebuilt c3-os
    5      40         1        0.143160     2.582365E+05     ; O5-C40, prebuilt c3-os
    6      22         1        0.121830     5.336274E+05     ; O6-C22, prebuilt c-o
    7      47         1        0.136960     3.151389E+05     ; O7-C47, prebuilt ca-os
    7      54         1        0.143160     2.582365E+05     ; O7-C54, prebuilt c3-os
    8      48         1        0.136960     3.151389E+05     ; O8-C48, prebuilt ca-os
    8      55         1        0.143160     2.582365E+05     ; O8-C55, prebuilt c3-os
    9      51         1        0.121830     5.336274E+05     ; O9-C51, prebuilt c-o
   10      18         1        0.146190     2.750562E+05     ; N10-C18, prebuilt c3-n
   10      21         1        0.138070     3.557237E+05     ; N10-C21, prebuilt cc-n
   10      22         1        0.137890     3.578157E+05     ; N10-C22, prebuilt c-n
   11      26         1        0.146470     2.727131E+05     ; N11-C26, prebuilt c3-n3
   11      27         1        0.146470     2.727131E+05     ; N11-C27, prebuilt c3-n3
   12      22         1        0.138670     3.488619E+05     ; N12-C22, prebuilt c-nc
   12      37         1        0.136940     3.691125E+05     ; N12-C37, prebuilt cc-nc
   13      37         1        0.138070     3.557237E+05     ; N13-C37, prebuilt cc-n
   13      51         1        0.137890     3.578157E+05     ; N13-C51, prebuilt c-n
   13      98         1        0.101290     3.373978E+05     ; N13-H98, prebuilt hn-n
   14      52         1        0.115350     7.988093E+05     ; N14-C52, prebuilt c1-n1
   15      16         1        0.153750     2.517931E+05     ; C15-C16, prebuilt c3-c3
   15      17         1        0.153750     2.517931E+05     ; C15-C17, prebuilt c3-c3
   15      61         1        0.109690     2.766461E+05     ; C15-H61, prebuilt c3-h1
   16      19         1        0.153750     2.517931E+05     ; C16-C19, prebuilt c3-c3
   16      62         1        0.109690     2.766461E+05     ; C16-H62, prebuilt c3-h1
   17      18         1        0.153750     2.517931E+05     ; C17-C18, prebuilt c3-c3
   17      63         1        0.109690     2.766461E+05     ; C17-H63, prebuilt c3-hc
   17      64         1        0.109690     2.766461E+05     ; C17-H64, prebuilt c3-hc
   18      65         1        0.109610     2.775666E+05     ; C18-H65, prebuilt c3-h2
   19      66         1        0.109690     2.766461E+05     ; C19-H66, prebuilt c3-h1
   19      67         1        0.109690     2.766461E+05     ; C19-H67, prebuilt c3-h1
   20      23         1        0.151560     2.686128E+05     ; C20-C23, prebuilt c3-ca
   20      24         1        0.151560     2.686128E+05     ; C20-C24, prebuilt c3-ca
   20      25         1        0.151560     2.686128E+05     ; C20-C25, prebuilt c3-ca
   21      28         1        0.142780     3.512886E+05     ; C21-C28, prebuilt cc-cc
   21      68         1        0.108170     2.945536E+05     ; C21-H68, prebuilt cc-h4
   23      33         1        0.139840     3.858485E+05     ; C23-C33, prebuilt ca-ca
   23      35         1        0.139840     3.858485E+05     ; C23-C35, prebuilt ca-ca
   24      34         1        0.139840     3.858485E+05     ; C24-C34, prebuilt ca-ca
   24      36         1        0.139840     3.858485E+05     ; C24-C36, prebuilt ca-ca
   25      38         1        0.139840     3.858485E+05     ; C25-C38, prebuilt ca-ca
   25      39         1        0.139840     3.858485E+05     ; C25-C39, prebuilt ca-ca
   26      29         1        0.153750     2.517931E+05     ; C26-C29, prebuilt c3-c3
   26      30         1        0.153750     2.517931E+05     ; C26-C30, prebuilt c3-c3
   26      69         1        0.109690     2.766461E+05     ; C26-H69, prebuilt c3-h1
   27      31         1        0.153750     2.517931E+05     ; C27-C31, prebuilt c3-c3
   27      32         1        0.153750     2.517931E+05     ; C27-C32, prebuilt c3-c3
   27      70         1        0.109690     2.766461E+05     ; C27-H70, prebuilt c3-h1
   28      37         1        0.142780     3.512886E+05     ; C28-C37, prebuilt cc-cc
   28      71         1        0.108370     2.921269E+05     ; C28-H71, prebuilt cc-ha
   29      72         1        0.109690     2.766461E+05     ; C29-H72, prebuilt c3-hc
   29      73         1        0.109690     2.766461E+05     ; C29-H73, prebuilt c3-hc
   29      74         1        0.109690     2.766461E+05     ; C29-H74, prebuilt c3-hc
   30      75         1        0.109690     2.766461E+05     ; C30-H75, prebuilt c3-hc
   30      76         1        0.109690     2.766461E+05     ; C30-H76, prebuilt c3-hc
   30      77         1        0.109690     2.766461E+05     ; C30-H77, prebuilt c3-hc
   31      78         1        0.109690     2.766461E+05     ; C31-H78, prebuilt c3-hc
   31      79         1        0.109690     2.766461E+05     ; C31-H79, prebuilt c3-hc
   31      80         1        0.109690     2.766461E+05     ; C31-H80, prebuilt c3-hc
   32      81         1        0.109690     2.766461E+05     ; C32-H81, prebuilt c3-hc
   32      82         1        0.109690     2.766461E+05     ; C32-H82, prebuilt c3-hc
   32      83         1        0.109690     2.766461E+05     ; C32-H83, prebuilt c3-hc
   33      41         1        0.139840     3.858485E+05     ; C33-C41, prebuilt ca-ca
   33      84         1        0.108600     2.893654E+05     ; C33-H84, prebuilt ca-ha
   34      42         1        0.139840     3.858485E+05     ; C34-C42, prebuilt ca-ca
   34      85         1        0.108600     2.893654E+05     ; C34-H85, prebuilt ca-ha
   35      43         1        0.139840     3.858485E+05     ; C35-C43, prebuilt ca-ca
   35      86         1        0.108600     2.893654E+05     ; C35-H86, prebuilt ca-ha
   36      44         1        0.139840     3.858485E+05     ; C36-C44, prebuilt ca-ca
   36      87         1        0.108600     2.893654E+05     ; C36-H87, prebuilt ca-ha
   38      45         1        0.139840     3.858485E+05     ; C38-C45, prebuilt ca-ca
   38      88         1        0.108600     2.893654E+05     ; C38-H88, prebuilt ca-ha
   39      46         1        0.139840     3.858485E+05     ; C39-C46, prebuilt ca-ca
   39      89         1        0.108600     2.893654E+05     ; C39-H89, prebuilt ca-ha
   40      50         1        0.153750     2.517931E+05     ; C40-C50, prebuilt c3-c3
   40      90         1        0.109690     2.766461E+05     ; C40-H90, prebuilt c3-h1
   40      91         1        0.109690     2.766461E+05     ; C40-H91, prebuilt c3-h1
   41      47         1        0.139840     3.858485E+05     ; C41-C47, prebuilt ca-ca
   41      92         1        0.108600     2.893654E+05     ; C41-H92, prebuilt ca-ha
   42      48         1        0.139840     3.858485E+05     ; C42-C48, prebuilt ca-ca
   42      93         1        0.108600     2.893654E+05     ; C42-H93, prebuilt ca-ha
   43      47         1        0.139840     3.858485E+05     ; C43-C47, prebuilt ca-ca
   43      94         1        0.108600     2.893654E+05     ; C43-H94, prebuilt ca-ha
   44      48         1        0.139840     3.858485E+05     ; C44-C48, prebuilt ca-ca
   44      95         1        0.108600     2.893654E+05     ; C44-H95, prebuilt ca-ha
   45      49         1        0.139840     3.858485E+05     ; C45-C49, prebuilt ca-ca
   45      96         1        0.108600     2.893654E+05     ; C45-H96, prebuilt ca-ha
   46      49         1        0.139840     3.858485E+05     ; C46-C49, prebuilt ca-ca
   46      97         1        0.108600     2.893654E+05     ; C46-H97, prebuilt ca-ha
   49      99         1        0.108600     2.893654E+05     ; C49-H99, prebuilt ca-ha
   50      52         1        0.146710     3.109549E+05     ; C50-C52, prebuilt c1-c3
   50     100         1        0.109690     2.766461E+05     ; C50-H100, prebuilt c3-hc
   50     101         1        0.109690     2.766461E+05     ; C50-H101, prebuilt c3-hc
   51      53         1        0.149060     2.894491E+05     ; C51-C53, prebuilt c-ca
   53      56         1        0.139840     3.858485E+05     ; C53-C56, prebuilt ca-ca
   53      57         1        0.139840     3.858485E+05     ; C53-C57, prebuilt ca-ca
   54     102         1        0.109690     2.766461E+05     ; C54-H102, prebuilt c3-h1
   54     103         1        0.109690     2.766461E+05     ; C54-H103, prebuilt c3-h1
   54     104         1        0.109690     2.766461E+05     ; C54-H104, prebuilt c3-h1
   55     105         1        0.109690     2.766461E+05     ; C55-H105, prebuilt c3-h1
   55     106         1        0.109690     2.766461E+05     ; C55-H106, prebuilt c3-h1
   55     107         1        0.109690     2.766461E+05     ; C55-H107, prebuilt c3-h1
   56      58         1        0.139840     3.858485E+05     ; C56-C58, prebuilt ca-ca
   56     108         1        0.108600     2.893654E+05     ; C56-H108, prebuilt ca-ha
   57      59         1        0.139840     3.858485E+05     ; C57-C59, prebuilt ca-ca
   57     109         1        0.108600     2.893654E+05     ; C57-H109, prebuilt ca-ha
   58      60         1        0.139840     3.858485E+05     ; C58-C60, prebuilt ca-ca
   58     110         1        0.108600     2.893654E+05     ; C58-H110, prebuilt ca-ha
   59      60         1        0.139840     3.858485E+05     ; C59-C60, prebuilt ca-ca
   59     111         1        0.108600     2.893654E+05     ; C59-H111, prebuilt ca-ha
   60     112         1        0.108600     2.893654E+05     ; C60-H112, prebuilt ca-ha
 
[ angles ]
; atom_i  atom_j  atom_k  functype    a0 (Deg.)  k (kJ/mol/rad^2)
    3       1       5         1        99.760      3.665184E+02     ; O3-P1-O5, prebuilt os-p3-os
    3       1      11         1       130.250      5.000000E+02     ; O3-P1-N11 (os-p3-n3) missing and simply guessed
    5       1      11         1       130.248      5.000000E+02     ; O5-P1-N11 (os-p3-n3) missing and simply guessed
   16       2      18         1       112.480      5.246736E+02     ; C16-O2-C18, prebuilt c3-os-c3
    1       3      15         1       117.510      6.401520E+02     ; P1-O3-C15, prebuilt c3-os-p3
   19       4      20         1       112.480      5.246736E+02     ; C19-O4-C20, prebuilt c3-os-c3
    1       5      40         1       117.510      6.401520E+02     ; P1-O5-C40, prebuilt c3-os-p3
   47       7      54         1       117.960      5.230000E+02     ; C47-O7-C54, prebuilt c3-os-ca
   48       8      55         1       117.960      5.230000E+02     ; C48-O8-C55, prebuilt c3-os-ca
   18      10      21         1       120.850      5.296944E+02     ; C18-N10-C21, prebuilt c3-n-cc
   18      10      22         1       120.690      5.305312E+02     ; C18-N10-C22, prebuilt c-n-c3
   21      10      22         1       123.270      5.414096E+02     ; C21-N10-C22, prebuilt c-n-cc
    1      11      26         1       119.670      6.409888E+02     ; P1-N11-C26, prebuilt c3-n3-p3
    1      11      27         1       119.670      6.409888E+02     ; P1-N11-C27, prebuilt c3-n3-p3
   26      11      27         1       112.350      5.338784E+02     ; C26-N11-C27, prebuilt c3-n3-c3
   22      12      37         1       122.476      5.000000E+02     ; C22-N12-C37 (c-nc-cc) missing and simply guessed
   37      13      51         1       123.270      5.414096E+02     ; C37-N13-C51, prebuilt c-n-cc
   37      13      98         1       119.260      4.008272E+02     ; C37-N13-H98, prebuilt cc-n-hn
   51      13      98         1       117.550      4.041744E+02     ; C51-N13-H98, prebuilt c-n-hn
    3      15      16         1       107.970      5.690240E+02     ; O3-C15-C16, prebuilt c3-c3-os
    3      15      17         1       107.970      5.690240E+02     ; O3-C15-C17, prebuilt c3-c3-os
    3      15      61         1       109.780      4.250944E+02     ; O3-C15-H61, prebuilt h1-c3-os
   16      15      17         1       111.510      5.263472E+02     ; C16-C15-C17, prebuilt c3-c3-c3
   16      15      61         1       109.560      3.882752E+02     ; C16-C15-H61, prebuilt c3-c3-h1
   17      15      61         1       109.560      3.882752E+02     ; C17-C15-H61, prebuilt c3-c3-h1
    2      16      15         1       107.970      5.690240E+02     ; O2-C16-C15, prebuilt c3-c3-os
    2      16      19         1       107.970      5.690240E+02     ; O2-C16-C19, prebuilt c3-c3-os
    2      16      62         1       109.780      4.250944E+02     ; O2-C16-H62, prebuilt h1-c3-os
   15      16      19         1       111.510      5.263472E+02     ; C15-C16-C19, prebuilt c3-c3-c3
   15      16      62         1       109.560      3.882752E+02     ; C15-C16-H62, prebuilt c3-c3-h1
   19      16      62         1       109.560      3.882752E+02     ; C19-C16-H62, prebuilt c3-c3-h1
   15      17      18         1       111.510      5.263472E+02     ; C15-C17-C18, prebuilt c3-c3-c3
   15      17      63         1       109.800      3.874384E+02     ; C15-C17-H63, prebuilt c3-c3-hc
   15      17      64         1       109.800      3.874384E+02     ; C15-C17-H64, prebuilt c3-c3-hc
   18      17      63         1       109.800      3.874384E+02     ; C18-C17-H63, prebuilt c3-c3-hc
   18      17      64         1       109.800      3.874384E+02     ; C18-C17-H64, prebuilt c3-c3-hc
   63      17      64         1       107.580      3.296992E+02     ; H63-C17-H64, prebuilt hc-c3-hc
    2      18      10         1       109.130      5.966384E+02     ; O2-C18-N10, prebuilt n-c3-os
    2      18      17         1       107.970      5.690240E+02     ; O2-C18-C17, prebuilt c3-c3-os
    2      18      65         1       109.580      4.259312E+02     ; O2-C18-H65, prebuilt h2-c3-os
   10      18      17         1       111.610      5.514512E+02     ; N10-C18-C17, prebuilt c3-c3-n
   10      18      65         1       107.280      4.200736E+02     ; N10-C18-H65, prebuilt h2-c3-n
   17      18      65         1       110.220      3.866016E+02     ; C17-C18-H65, prebuilt c3-c3-h2
    4      19      16         1       107.970      5.690240E+02     ; O4-C19-C16, prebuilt c3-c3-os
    4      19      66         1       109.780      4.250944E+02     ; O4-C19-H66, prebuilt h1-c3-os
    4      19      67         1       109.780      4.250944E+02     ; O4-C19-H67, prebuilt h1-c3-os
   16      19      66         1       109.560      3.882752E+02     ; C16-C19-H66, prebuilt c3-c3-h1
   16      19      67         1       109.560      3.882752E+02     ; C16-C19-H67, prebuilt c3-c3-h1
   66      19      67         1       108.460      3.280256E+02     ; H66-C19-H67, prebuilt h1-c3-h1
    4      20      23         1       108.950      5.715344E+02     ; O4-C20-C23, prebuilt ca-c3-os
    4      20      24         1       108.950      5.715344E+02     ; O4-C20-C24, prebuilt ca-c3-os
    4      20      25         1       108.950      5.715344E+02     ; O4-C20-C25, prebuilt ca-c3-os
   23      20      24         1       112.240      5.322048E+02     ; C23-C20-C24, prebuilt ca-c3-ca
   23      20      25         1       112.240      5.322048E+02     ; C23-C20-C25, prebuilt ca-c3-ca
   24      20      25         1       112.240      5.322048E+02     ; C24-C20-C25, prebuilt ca-c3-ca
   10      21      28         1       119.890      5.690240E+02     ; N10-C21-C28, prebuilt cc-cc-n
   10      21      68         1       115.690      4.250944E+02     ; N10-C21-H68, prebuilt h4-cc-n
   28      21      68         1       127.960      3.840912E+02     ; C28-C21-H68, prebuilt cc-cc-h4
    6      22      10         1       123.050      6.209056E+02     ; O6-C22-N10, prebuilt n-c-o
    6      22      12         1       123.180      6.183952E+02     ; O6-C22-N12, prebuilt nc-c-o
   10      22      12         1       117.110      5.991488E+02     ; N10-C22-N12, prebuilt n-c-nc
   20      23      33         1       120.770      5.313680E+02     ; C20-C23-C33, prebuilt c3-ca-ca
   20      23      35         1       120.770      5.313680E+02     ; C20-C23-C35, prebuilt c3-ca-ca
   33      23      35         1       120.020      5.573088E+02     ; C33-C23-C35, prebuilt ca-ca-ca
   20      24      34         1       120.770      5.313680E+02     ; C20-C24-C34, prebuilt c3-ca-ca
   20      24      36         1       120.770      5.313680E+02     ; C20-C24-C36, prebuilt c3-ca-ca
   34      24      36         1       120.020      5.573088E+02     ; C34-C24-C36, prebuilt ca-ca-ca
   20      25      38         1       120.770      5.313680E+02     ; C20-C25-C38, prebuilt c3-ca-ca
   20      25      39         1       120.770      5.313680E+02     ; C20-C25-C39, prebuilt c3-ca-ca
   38      25      39         1       120.020      5.573088E+02     ; C38-C25-C39, prebuilt ca-ca-ca
   11      26      29         1       111.040      5.522880E+02     ; N11-C26-C29, prebuilt c3-c3-n3
   11      26      30         1       111.040      5.522880E+02     ; N11-C26-C30, prebuilt c3-c3-n3
   11      26      69         1       109.880      4.142160E+02     ; N11-C26-H69, prebuilt h1-c3-n3
   29      26      30         1       111.510      5.263472E+02     ; C29-C26-C30, prebuilt c3-c3-c3
   29      26      69         1       109.560      3.882752E+02     ; C29-C26-H69, prebuilt c3-c3-h1
   30      26      69         1       109.560      3.882752E+02     ; C30-C26-H69, prebuilt c3-c3-h1
   11      27      31         1       111.040      5.522880E+02     ; N11-C27-C31, prebuilt c3-c3-n3
   11      27      32         1       111.040      5.522880E+02     ; N11-C27-C32, prebuilt c3-c3-n3
   11      27      70         1       109.880      4.142160E+02     ; N11-C27-H70, prebuilt h1-c3-n3
   31      27      32         1       111.510      5.263472E+02     ; C31-C27-C32, prebuilt c3-c3-c3
   31      27      70         1       109.560      3.882752E+02     ; C31-C27-H70, prebuilt c3-c3-h1
   32      27      70         1       109.560      3.882752E+02     ; C32-C27-H70, prebuilt c3-c3-h1
   21      28      37         1       110.700      5.681872E+02     ; C21-C28-C37, prebuilt cc-cc-cc
   21      28      71         1       121.070      3.941328E+02     ; C21-C28-H71, prebuilt cc-cc-ha
   37      28      71         1       121.070      3.941328E+02     ; C37-C28-H71, prebuilt cc-cc-ha
   26      29      72         1       109.800      3.874384E+02     ; C26-C29-H72, prebuilt c3-c3-hc
   26      29      73         1       109.800      3.874384E+02     ; C26-C29-H73, prebuilt c3-c3-hc
   26      29      74         1       109.800      3.874384E+02     ; C26-C29-H74, prebuilt c3-c3-hc
   72      29      73         1       107.580      3.296992E+02     ; H72-C29-H73, prebuilt hc-c3-hc
   72      29      74         1       107.580      3.296992E+02     ; H72-C29-H74, prebuilt hc-c3-hc
   73      29      74         1       107.580      3.296992E+02     ; H73-C29-H74, prebuilt hc-c3-hc
   26      30      75         1       109.800      3.874384E+02     ; C26-C30-H75, prebuilt c3-c3-hc
   26      30      76         1       109.800      3.874384E+02     ; C26-C30-H76, prebuilt c3-c3-hc
   26      30      77         1       109.800      3.874384E+02     ; C26-C30-H77, prebuilt c3-c3-hc
   75      30      76         1       107.580      3.296992E+02     ; H75-C30-H76, prebuilt hc-c3-hc
   75      30      77         1       107.580      3.296992E+02     ; H75-C30-H77, prebuilt hc-c3-hc
   76      30      77         1       107.580      3.296992E+02     ; H76-C30-H77, prebuilt hc-c3-hc
   27      31      78         1       109.800      3.874384E+02     ; C27-C31-H78, prebuilt c3-c3-hc
   27      31      79         1       109.800      3.874384E+02     ; C27-C31-H79, prebuilt c3-c3-hc
   27      31      80         1       109.800      3.874384E+02     ; C27-C31-H80, prebuilt c3-c3-hc
   78      31      79         1       107.580      3.296992E+02     ; H78-C31-H79, prebuilt hc-c3-hc
   78      31      80         1       107.580      3.296992E+02     ; H78-C31-H80, prebuilt hc-c3-hc
   79      31      80         1       107.580      3.296992E+02     ; H79-C31-H80, prebuilt hc-c3-hc
   27      32      81         1       109.800      3.874384E+02     ; C27-C32-H81, prebuilt c3-c3-hc
   27      32      82         1       109.800      3.874384E+02     ; C27-C32-H82, prebuilt c3-c3-hc
   27      32      83         1       109.800      3.874384E+02     ; C27-C32-H83, prebuilt c3-c3-hc
   81      32      82         1       107.580      3.296992E+02     ; H81-C32-H82, prebuilt hc-c3-hc
   81      32      83         1       107.580      3.296992E+02     ; H81-C32-H83, prebuilt hc-c3-hc
   82      32      83         1       107.580      3.296992E+02     ; H82-C32-H83, prebuilt hc-c3-hc
   23      33      41         1       120.020      5.573088E+02     ; C23-C33-C41, prebuilt ca-ca-ca
   23      33      84         1       119.880      4.033376E+02     ; C23-C33-H84, prebuilt ca-ca-ha
   41      33      84         1       119.880      4.033376E+02     ; C41-C33-H84, prebuilt ca-ca-ha
   24      34      42         1       120.020      5.573088E+02     ; C24-C34-C42, prebuilt ca-ca-ca
   24      34      85         1       119.880      4.033376E+02     ; C24-C34-H85, prebuilt ca-ca-ha
   42      34      85         1       119.880      4.033376E+02     ; C42-C34-H85, prebuilt ca-ca-ha
   23      35      43         1       120.020      5.573088E+02     ; C23-C35-C43, prebuilt ca-ca-ca
   23      35      86         1       119.880      4.033376E+02     ; C23-C35-H86, prebuilt ca-ca-ha
   43      35      86         1       119.880      4.033376E+02     ; C43-C35-H86, prebuilt ca-ca-ha
   24      36      44         1       120.020      5.573088E+02     ; C24-C36-C44, prebuilt ca-ca-ca
   24      36      87         1       119.880      4.033376E+02     ; C24-C36-H87, prebuilt ca-ca-ha
   44      36      87         1       119.880      4.033376E+02     ; C44-C36-H87, prebuilt ca-ca-ha
   12      37      13         1       126.230      5.799024E+02     ; N12-C37-N13, prebuilt n-cc-nc
   12      37      28         1       121.980      5.656768E+02     ; N12-C37-C28, prebuilt cc-cc-nc
   13      37      28         1       119.890      5.690240E+02     ; N13-C37-C28, prebuilt cc-cc-n
   25      38      45         1       120.020      5.573088E+02     ; C25-C38-C45, prebuilt ca-ca-ca
   25      38      88         1       119.880      4.033376E+02     ; C25-C38-H88, prebuilt ca-ca-ha
   45      38      88         1       119.880      4.033376E+02     ; C45-C38-H88, prebuilt ca-ca-ha
   25      39      46         1       120.020      5.573088E+02     ; C25-C39-C46, prebuilt ca-ca-ca
   25      39      89         1       119.880      4.033376E+02     ; C25-C39-H89, prebuilt ca-ca-ha
   46      39      89         1       119.880      4.033376E+02     ; C46-C39-H89, prebuilt ca-ca-ha
    5      40      50         1       107.970      5.690240E+02     ; O5-C40-C50, prebuilt c3-c3-os
    5      40      90         1       109.780      4.250944E+02     ; O5-C40-H90, prebuilt h1-c3-os
    5      40      91         1       109.780      4.250944E+02     ; O5-C40-H91, prebuilt h1-c3-os
   50      40      90         1       109.560      3.882752E+02     ; C50-C40-H90, prebuilt c3-c3-h1
   50      40      91         1       109.560      3.882752E+02     ; C50-C40-H91, prebuilt c3-c3-h1
   90      40      91         1       108.460      3.280256E+02     ; H90-C40-H91, prebuilt h1-c3-h1
   33      41      47         1       120.020      5.573088E+02     ; C33-C41-C47, prebuilt ca-ca-ca
   33      41      92         1       119.880      4.033376E+02     ; C33-C41-H92, prebuilt ca-ca-ha
   47      41      92         1       119.880      4.033376E+02     ; C47-C41-H92, prebuilt ca-ca-ha
   34      42      48         1       120.020      5.573088E+02     ; C34-C42-C48, prebuilt ca-ca-ca
   34      42      93         1       119.880      4.033376E+02     ; C34-C42-H93, prebuilt ca-ca-ha
   48      42      93         1       119.880      4.033376E+02     ; C48-C42-H93, prebuilt ca-ca-ha
   35      43      47         1       120.020      5.573088E+02     ; C35-C43-C47, prebuilt ca-ca-ca
   35      43      94         1       119.880      4.033376E+02     ; C35-C43-H94, prebuilt ca-ca-ha
   47      43      94         1       119.880      4.033376E+02     ; C47-C43-H94, prebuilt ca-ca-ha
   36      44      48         1       120.020      5.573088E+02     ; C36-C44-C48, prebuilt ca-ca-ca
   36      44      95         1       119.880      4.033376E+02     ; C36-C44-H95, prebuilt ca-ca-ha
   48      44      95         1       119.880      4.033376E+02     ; C48-C44-H95, prebuilt ca-ca-ha
   38      45      49         1       120.020      5.573088E+02     ; C38-C45-C49, prebuilt ca-ca-ca
   38      45      96         1       119.880      4.033376E+02     ; C38-C45-H96, prebuilt ca-ca-ha
   49      45      96         1       119.880      4.033376E+02     ; C49-C45-H96, prebuilt ca-ca-ha
   39      46      49         1       120.020      5.573088E+02     ; C39-C46-C49, prebuilt ca-ca-ca
   39      46      97         1       119.880      4.033376E+02     ; C39-C46-H97, prebuilt ca-ca-ha
   49      46      97         1       119.880      4.033376E+02     ; C49-C46-H97, prebuilt ca-ca-ha
    7      47      41         1       119.200      5.824128E+02     ; O7-C47-C41, prebuilt ca-ca-os
    7      47      43         1       119.200      5.824128E+02     ; O7-C47-C43, prebuilt ca-ca-os
   41      47      43         1       120.020      5.573088E+02     ; C41-C47-C43, prebuilt ca-ca-ca
    8      48      42         1       119.200      5.824128E+02     ; O8-C48-C42, prebuilt ca-ca-os
    8      48      44         1       119.200      5.824128E+02     ; O8-C48-C44, prebuilt ca-ca-os
   42      48      44         1       120.020      5.573088E+02     ; C42-C48-C44, prebuilt ca-ca-ca
   45      49      46         1       120.020      5.573088E+02     ; C45-C49-C46, prebuilt ca-ca-ca
   45      49      99         1       119.880      4.033376E+02     ; C45-C49-H99, prebuilt ca-ca-ha
   46      49      99         1       119.880      4.033376E+02     ; C46-C49-H99, prebuilt ca-ca-ha
   40      50      52         1       111.710      5.372256E+02     ; C40-C50-C52, prebuilt c1-c3-c3
   40      50     100         1       109.800      3.874384E+02     ; C40-C50-H100, prebuilt c3-c3-hc
   40      50     101         1       109.800      3.874384E+02     ; C40-C50-H101, prebuilt c3-c3-hc
   52      50     100         1       109.410      4.050112E+02     ; C52-C50-H100, prebuilt c1-c3-hc
   52      50     101         1       109.410      4.050112E+02     ; C52-C50-H101, prebuilt c1-c3-hc
  100      50     101         1       107.580      3.296992E+02     ; H100-C50-H101, prebuilt hc-c3-hc
    9      51      13         1       123.050      6.209056E+02     ; O9-C51-N13, prebuilt n-c-o
    9      51      53         1       122.600      5.748816E+02     ; O9-C51-C53, prebuilt ca-c-o
   13      51      53         1       115.250      5.665136E+02     ; N13-C51-C53, prebuilt ca-c-n
   14      52      50         1       178.580      4.853440E+02     ; N14-C52-C50, prebuilt c3-c1-n1
   51      53      56         1       120.330      5.380624E+02     ; C51-C53-C56, prebuilt c-ca-ca
   51      53      57         1       120.330      5.380624E+02     ; C51-C53-C57, prebuilt c-ca-ca
   56      53      57         1       120.020      5.573088E+02     ; C56-C53-C57, prebuilt ca-ca-ca
    7      54     102         1       109.780      4.250944E+02     ; O7-C54-H102, prebuilt h1-c3-os
    7      54     103         1       109.780      4.250944E+02     ; O7-C54-H103, prebuilt h1-c3-os
    7      54     104         1       109.780      4.250944E+02     ; O7-C54-H104, prebuilt h1-c3-os
  102      54     103         1       108.460      3.280256E+02     ; H102-C54-H103, prebuilt h1-c3-h1
  102      54     104         1       108.460      3.280256E+02     ; H102-C54-H104, prebuilt h1-c3-h1
  103      54     104         1       108.460      3.280256E+02     ; H103-C54-H104, prebuilt h1-c3-h1
    8      55     105         1       109.780      4.250944E+02     ; O8-C55-H105, prebuilt h1-c3-os
    8      55     106         1       109.780      4.250944E+02     ; O8-C55-H106, prebuilt h1-c3-os
    8      55     107         1       109.780      4.250944E+02     ; O8-C55-H107, prebuilt h1-c3-os
  105      55     106         1       108.460      3.280256E+02     ; H105-C55-H106, prebuilt h1-c3-h1
  105      55     107         1       108.460      3.280256E+02     ; H105-C55-H107, prebuilt h1-c3-h1
  106      55     107         1       108.460      3.280256E+02     ; H106-C55-H107, prebuilt h1-c3-h1
   53      56      58         1       120.020      5.573088E+02     ; C53-C56-C58, prebuilt ca-ca-ca
   53      56     108         1       119.880      4.033376E+02     ; C53-C56-H108, prebuilt ca-ca-ha
   58      56     108         1       119.880      4.033376E+02     ; C58-C56-H108, prebuilt ca-ca-ha
   53      57      59         1       120.020      5.573088E+02     ; C53-C57-C59, prebuilt ca-ca-ca
   53      57     109         1       119.880      4.033376E+02     ; C53-C57-H109, prebuilt ca-ca-ha
   59      57     109         1       119.880      4.033376E+02     ; C59-C57-H109, prebuilt ca-ca-ha
   56      58      60         1       120.020      5.573088E+02     ; C56-C58-C60, prebuilt ca-ca-ca
   56      58     110         1       119.880      4.033376E+02     ; C56-C58-H110, prebuilt ca-ca-ha
   60      58     110         1       119.880      4.033376E+02     ; C60-C58-H110, prebuilt ca-ca-ha
   57      59      60         1       120.020      5.573088E+02     ; C57-C59-C60, prebuilt ca-ca-ca
   57      59     111         1       119.880      4.033376E+02     ; C57-C59-H111, prebuilt ca-ca-ha
   60      59     111         1       119.880      4.033376E+02     ; C60-C59-H111, prebuilt ca-ca-ha
   58      60      59         1       120.020      5.573088E+02     ; C58-C60-C59, prebuilt ca-ca-ca
   58      60     112         1       119.880      4.033376E+02     ; C58-C60-H112, prebuilt ca-ca-ha
   59      60     112         1       119.880      4.033376E+02     ; C59-C60-H112, prebuilt ca-ca-ha
 
[ dihedrals ] ; propers
; atom_i  atom_j  atom_k  atom_l  functype   d0 (Deg.)   k (kJ/mol/rad^2)    ; Case of functype=2
; atom_i  atom_j  atom_k  atom_l  functype  phase (Deg.)  kd (kJ/mol) pn     ; Case of functype=9
    1       3      15      16         9         0.000       1.60387    3     ; P1-O3-C15-C16, prebuilt X-c3-os-X
    1       3      15      17         9         0.000       1.60387    3     ; P1-O3-C15-C17, prebuilt X-c3-os-X
    1       3      15      61         9         0.000       1.60387    3     ; P1-O3-C15-H61, prebuilt X-c3-os-X
    1       5      40      50         9         0.000       1.60387    3     ; P1-O5-C40-C50, prebuilt X-c3-os-X
    1       5      40      90         9         0.000       1.60387    3     ; P1-O5-C40-H90, prebuilt X-c3-os-X
    1       5      40      91         9         0.000       1.60387    3     ; P1-O5-C40-H91, prebuilt X-c3-os-X
    1      11      26      29         9         0.000       1.25520    3     ; P1-N11-C26-C29, prebuilt X-c3-n3-X
    1      11      26      30         9         0.000       1.25520    3     ; P1-N11-C26-C30, prebuilt X-c3-n3-X
    1      11      26      69         9         0.000       1.25520    3     ; P1-N11-C26-H69, prebuilt X-c3-n3-X
    1      11      27      31         9         0.000       1.25520    3     ; P1-N11-C27-C31, prebuilt X-c3-n3-X
    1      11      27      32         9         0.000       1.25520    3     ; P1-N11-C27-C32, prebuilt X-c3-n3-X
    1      11      27      70         9         0.000       1.25520    3     ; P1-N11-C27-H70, prebuilt X-c3-n3-X
    2      16      15       3         9         0.000       0.60250    3     ; O2-C16-C15-O3, prebuilt os-c3-c3-os
    2      16      15       3         9         0.000       4.91620    2     ; O2-C16-C15-O3, prebuilt os-c3-c3-os
    2      16      15      17         9         0.000       0.65084    3     ; O2-C16-C15-C17, prebuilt X-c3-c3-X
    2      16      15      61         9         0.000       0.00000    3     ; O2-C16-C15-H61, prebuilt h1-c3-c3-os
    2      16      15      61         9         0.000       1.04600    1     ; O2-C16-C15-H61, prebuilt h1-c3-c3-os
    2      16      19       4         9         0.000       0.60250    3     ; O2-C16-C19-O4, prebuilt os-c3-c3-os
    2      16      19       4         9         0.000       4.91620    2     ; O2-C16-C19-O4, prebuilt os-c3-c3-os
    2      16      19      66         9         0.000       0.00000    3     ; O2-C16-C19-H66, prebuilt h1-c3-c3-os
    2      16      19      66         9         0.000       1.04600    1     ; O2-C16-C19-H66, prebuilt h1-c3-c3-os
    2      16      19      67         9         0.000       0.00000    3     ; O2-C16-C19-H67, prebuilt h1-c3-c3-os
    2      16      19      67         9         0.000       1.04600    1     ; O2-C16-C19-H67, prebuilt h1-c3-c3-os
    2      18      10      21         9         0.000       0.00000    2     ; O2-C18-N10-C21, prebuilt X-c3-n-X
    2      18      10      22         9         0.000       0.00000    2     ; O2-C18-N10-C22, prebuilt X-c3-n-X
    2      18      17      15         9         0.000       0.65084    3     ; O2-C18-C17-C15, prebuilt X-c3-c3-X
    2      18      17      63         9         0.000       0.00000    3     ; O2-C18-C17-H63, prebuilt hc-c3-c3-os
    2      18      17      63         9         0.000       1.04600    1     ; O2-C18-C17-H63, prebuilt hc-c3-c3-os
    2      18      17      64         9         0.000       0.00000    3     ; O2-C18-C17-H64, prebuilt hc-c3-c3-os
    2      18      17      64         9         0.000       1.04600    1     ; O2-C18-C17-H64, prebuilt hc-c3-c3-os
    3       1       5      40         9         0.000       9.20480    2     ; O3-P1-O5-C40, prebuilt X-os-p3-X
    3       1      11      26         9         0.000       9.83240    2     ; O3-P1-N11-C26, prebuilt X-n3-p3-X
    3       1      11      27         9         0.000       9.83240    2     ; O3-P1-N11-C27, prebuilt X-n3-p3-X
    3      15      16      19         9         0.000       0.65084    3     ; O3-C15-C16-C19, prebuilt X-c3-c3-X
    3      15      16      62         9         0.000       0.00000    3     ; O3-C15-C16-H62, prebuilt h1-c3-c3-os
    3      15      16      62         9         0.000       1.04600    1     ; O3-C15-C16-H62, prebuilt h1-c3-c3-os
    3      15      17      18         9         0.000       0.65084    3     ; O3-C15-C17-C18, prebuilt X-c3-c3-X
    3      15      17      63         9         0.000       0.00000    3     ; O3-C15-C17-H63, prebuilt hc-c3-c3-os
    3      15      17      63         9         0.000       1.04600    1     ; O3-C15-C17-H63, prebuilt hc-c3-c3-os
    3      15      17      64         9         0.000       0.00000    3     ; O3-C15-C17-H64, prebuilt hc-c3-c3-os
    3      15      17      64         9         0.000       1.04600    1     ; O3-C15-C17-H64, prebuilt hc-c3-c3-os
    4      19      16      15         9         0.000       0.65084    3     ; O4-C19-C16-C15, prebuilt X-c3-c3-X
    4      19      16      62         9         0.000       0.00000    3     ; O4-C19-C16-H62, prebuilt h1-c3-c3-os
    4      19      16      62         9         0.000       1.04600    1     ; O4-C19-C16-H62, prebuilt h1-c3-c3-os
    4      20      23      33         9         0.000       0.00000    2     ; O4-C20-C23-C33, prebuilt X-c3-ca-X
    4      20      23      35         9         0.000       0.00000    2     ; O4-C20-C23-C35, prebuilt X-c3-ca-X
    4      20      24      34         9         0.000       0.00000    2     ; O4-C20-C24-C34, prebuilt X-c3-ca-X
    4      20      24      36         9         0.000       0.00000    2     ; O4-C20-C24-C36, prebuilt X-c3-ca-X
    4      20      25      38         9         0.000       0.00000    2     ; O4-C20-C25-C38, prebuilt X-c3-ca-X
    4      20      25      39         9         0.000       0.00000    2     ; O4-C20-C25-C39, prebuilt X-c3-ca-X
    5       1       3      15         9         0.000       9.20480    2     ; O5-P1-O3-C15, prebuilt X-os-p3-X
    5       1      11      26         9         0.000       9.83240    2     ; O5-P1-N11-C26, prebuilt X-n3-p3-X
    5       1      11      27         9         0.000       9.83240    2     ; O5-P1-N11-C27, prebuilt X-n3-p3-X
    5      40      50      52         9         0.000       0.65084    3     ; O5-C40-C50-C52, prebuilt X-c3-c3-X
    5      40      50     100         9         0.000       0.00000    3     ; O5-C40-C50-H100, prebuilt hc-c3-c3-os
    5      40      50     100         9         0.000       1.04600    1     ; O5-C40-C50-H100, prebuilt hc-c3-c3-os
    5      40      50     101         9         0.000       0.00000    3     ; O5-C40-C50-H101, prebuilt hc-c3-c3-os
    5      40      50     101         9         0.000       1.04600    1     ; O5-C40-C50-H101, prebuilt hc-c3-c3-os
    6      22      10      18         9       180.000      10.46000    2     ; O6-C22-N10-C18, prebuilt X-c-n-X
    6      22      10      21         9       180.000      10.46000    2     ; O6-C22-N10-C21, prebuilt X-c-n-X
    6      22      12      37         9       180.000      16.73600    2     ; O6-C22-N12-C37, prebuilt X-c-nc-X
    7      47      41      33         9       180.000      15.16700    2     ; O7-C47-C41-C33, prebuilt X-ca-ca-X
    7      47      41      92         9       180.000      15.16700    2     ; O7-C47-C41-H92, prebuilt X-ca-ca-X
    7      47      43      35         9       180.000      15.16700    2     ; O7-C47-C43-C35, prebuilt X-ca-ca-X
    7      47      43      94         9       180.000      15.16700    2     ; O7-C47-C43-H94, prebuilt X-ca-ca-X
    8      48      42      34         9       180.000      15.16700    2     ; O8-C48-C42-C34, prebuilt X-ca-ca-X
    8      48      42      93         9       180.000      15.16700    2     ; O8-C48-C42-H93, prebuilt X-ca-ca-X
    8      48      44      36         9       180.000      15.16700    2     ; O8-C48-C44-C36, prebuilt X-ca-ca-X
    8      48      44      95         9       180.000      15.16700    2     ; O8-C48-C44-H95, prebuilt X-ca-ca-X
    9      51      13      37         9       180.000      10.46000    2     ; O9-C51-N13-C37, prebuilt X-c-n-X
    9      51      13      98         9       180.000      10.46000    2     ; O9-C51-N13-H98, prebuilt hn-n-c-o
    9      51      13      98         9         0.000       8.36800    1     ; O9-C51-N13-H98, prebuilt hn-n-c-o
    9      51      53      56         9       180.000       4.18400    2     ; O9-C51-C53-C56, prebuilt X-c-ca-X
    9      51      53      57         9       180.000       4.18400    2     ; O9-C51-C53-C57, prebuilt X-c-ca-X
   10      18       2      16         9         0.000       1.60387    3     ; N10-C18-O2-C16, prebuilt X-c3-os-X
   10      18      17      15         9         0.000       0.65084    3     ; N10-C18-C17-C15, prebuilt X-c3-c3-X
   10      18      17      63         9         0.000       0.65084    3     ; N10-C18-C17-H63, prebuilt X-c3-c3-X
   10      18      17      64         9         0.000       0.65084    3     ; N10-C18-C17-H64, prebuilt X-c3-c3-X
   10      21      28      37         9       180.000      16.73600    2     ; N10-C21-C28-C37, prebuilt X-cc-cc-X
   10      21      28      71         9       180.000      16.73600    2     ; N10-C21-C28-H71, prebuilt X-cc-cc-X
   10      22      12      37         9       180.000      16.73600    2     ; N10-C22-N12-C37, prebuilt X-c-nc-X
   11       1       3      15         9         0.000       9.20480    2     ; N11-P1-O3-C15, prebuilt X-os-p3-X
   11       1       5      40         9         0.000       9.20480    2     ; N11-P1-O5-C40, prebuilt X-os-p3-X
   11      26      29      72         9         0.000       0.65084    3     ; N11-C26-C29-H72, prebuilt X-c3-c3-X
   11      26      29      73         9         0.000       0.65084    3     ; N11-C26-C29-H73, prebuilt X-c3-c3-X
   11      26      29      74         9         0.000       0.65084    3     ; N11-C26-C29-H74, prebuilt X-c3-c3-X
   11      26      30      75         9         0.000       0.65084    3     ; N11-C26-C30-H75, prebuilt X-c3-c3-X
   11      26      30      76         9         0.000       0.65084    3     ; N11-C26-C30-H76, prebuilt X-c3-c3-X
   11      26      30      77         9         0.000       0.65084    3     ; N11-C26-C30-H77, prebuilt X-c3-c3-X
   11      27      31      78         9         0.000       0.65084    3     ; N11-C27-C31-H78, prebuilt X-c3-c3-X
   11      27      31      79         9         0.000       0.65084    3     ; N11-C27-C31-H79, prebuilt X-c3-c3-X
   11      27      31      80         9         0.000       0.65084    3     ; N11-C27-C31-H80, prebuilt X-c3-c3-X
   11      27      32      81         9         0.000       0.65084    3     ; N11-C27-C32-H81, prebuilt X-c3-c3-X
   11      27      32      82         9         0.000       0.65084    3     ; N11-C27-C32-H82, prebuilt X-c3-c3-X
   11      27      32      83         9         0.000       0.65084    3     ; N11-C27-C32-H83, prebuilt X-c3-c3-X
   12      22      10      18         9       180.000      10.46000    2     ; N12-C22-N10-C18, prebuilt X-c-n-X
   12      22      10      21         9       180.000      10.46000    2     ; N12-C22-N10-C21, prebuilt X-c-n-X
   12      37      13      51         9       180.000       6.90360    2     ; N12-C37-N13-C51, prebuilt X-n-cc-X
   12      37      13      98         9       180.000       6.90360    2     ; N12-C37-N13-H98, prebuilt X-n-cc-X
   12      37      28      21         9       180.000      16.73600    2     ; N12-C37-C28-C21, prebuilt X-cc-cc-X
   12      37      28      71         9       180.000      16.73600    2     ; N12-C37-C28-H71, prebuilt X-cc-cc-X
   13      37      12      22         9       180.000      19.87400    2     ; N13-C37-N12-C22, prebuilt X-cc-nc-X
   13      37      28      21         9       180.000      16.73600    2     ; N13-C37-C28-C21, prebuilt X-cc-cc-X
   13      37      28      71         9       180.000      16.73600    2     ; N13-C37-C28-H71, prebuilt X-cc-cc-X
   13      51      53      56         9       180.000       4.18400    2     ; N13-C51-C53-C56, prebuilt X-c-ca-X
   13      51      53      57         9       180.000       4.18400    2     ; N13-C51-C53-C57, prebuilt X-c-ca-X
   15      16       2      18         9         0.000       1.60247    3     ; C15-C16-O2-C18, prebuilt c3-c3-os-c3
   15      16       2      18         9       180.000       0.41840    2     ; C15-C16-O2-C18, prebuilt c3-c3-os-c3
   15      16      19      66         9         0.000       0.65084    3     ; C15-C16-C19-H66, prebuilt X-c3-c3-X
   15      16      19      67         9         0.000       0.65084    3     ; C15-C16-C19-H67, prebuilt X-c3-c3-X
   15      17      18      65         9         0.000       0.65084    3     ; C15-C17-C18-H65, prebuilt X-c3-c3-X
   16       2      18      17         9         0.000       1.60247    3     ; C16-O2-C18-C17, prebuilt c3-c3-os-c3
   16       2      18      17         9       180.000       0.41840    2     ; C16-O2-C18-C17, prebuilt c3-c3-os-c3
   16       2      18      65         9         0.000       1.60387    3     ; C16-O2-C18-H65, prebuilt X-c3-os-X
   16      15      17      18         9         0.000       0.75312    3     ; C16-C15-C17-C18, prebuilt c3-c3-c3-c3
   16      15      17      18         9       180.000       1.04600    2     ; C16-C15-C17-C18, prebuilt c3-c3-c3-c3
   16      15      17      18         9       180.000       0.83680    1     ; C16-C15-C17-C18, prebuilt c3-c3-c3-c3
   16      15      17      63         9         0.000       0.66944    3     ; C16-C15-C17-H63, prebuilt hc-c3-c3-c3
   16      15      17      64         9         0.000       0.66944    3     ; C16-C15-C17-H64, prebuilt hc-c3-c3-c3
   16      19       4      20         9         0.000       1.60247    3     ; C16-C19-O4-C20, prebuilt c3-c3-os-c3
   16      19       4      20         9       180.000       0.41840    2     ; C16-C19-O4-C20, prebuilt c3-c3-os-c3
   17      15      16      19         9         0.000       0.75312    3     ; C17-C15-C16-C19, prebuilt c3-c3-c3-c3
   17      15      16      19         9       180.000       1.04600    2     ; C17-C15-C16-C19, prebuilt c3-c3-c3-c3
   17      15      16      19         9       180.000       0.83680    1     ; C17-C15-C16-C19, prebuilt c3-c3-c3-c3
   17      15      16      62         9         0.000       0.65084    3     ; C17-C15-C16-H62, prebuilt X-c3-c3-X
   17      18      10      21         9         0.000       0.00000    2     ; C17-C18-N10-C21, prebuilt X-c3-n-X
   17      18      10      22         9       180.000       2.09200    4     ; C17-C18-N10-C22, prebuilt c3-c3-n-c
   17      18      10      22         9       180.000       0.62760    3     ; C17-C18-N10-C22, prebuilt c3-c3-n-c
   17      18      10      22         9         0.000       0.00000    2     ; C17-C18-N10-C22, prebuilt c3-c3-n-c
   17      18      10      22         9         0.000       2.21752    1     ; C17-C18-N10-C22, prebuilt c3-c3-n-c
   18       2      16      19         9         0.000       1.60247    3     ; C18-O2-C16-C19, prebuilt c3-c3-os-c3
   18       2      16      19         9       180.000       0.41840    2     ; C18-O2-C16-C19, prebuilt c3-c3-os-c3
   18       2      16      62         9         0.000       1.60387    3     ; C18-O2-C16-H62, prebuilt X-c3-os-X
   18      10      21      28         9       180.000       6.90360    2     ; C18-N10-C21-C28, prebuilt X-n-cc-X
   18      10      21      68         9       180.000       6.90360    2     ; C18-N10-C21-H68, prebuilt X-n-cc-X
   18      17      15      61         9         0.000       0.65084    3     ; C18-C17-C15-H61, prebuilt X-c3-c3-X
   19       4      20      23         9         0.000       1.60387    3     ; C19-O4-C20-C23, prebuilt X-c3-os-X
   19       4      20      24         9         0.000       1.60387    3     ; C19-O4-C20-C24, prebuilt X-c3-os-X
   19       4      20      25         9         0.000       1.60387    3     ; C19-O4-C20-C25, prebuilt X-c3-os-X
   19      16      15      61         9         0.000       0.65084    3     ; C19-C16-C15-H61, prebuilt X-c3-c3-X
   20       4      19      66         9         0.000       1.60387    3     ; C20-O4-C19-H66, prebuilt X-c3-os-X
   20       4      19      67         9         0.000       1.60387    3     ; C20-O4-C19-H67, prebuilt X-c3-os-X
   20      23      33      41         9       180.000      15.16700    2     ; C20-C23-C33-C41, prebuilt X-ca-ca-X
   20      23      33      84         9       180.000      15.16700    2     ; C20-C23-C33-H84, prebuilt X-ca-ca-X
   20      23      35      43         9       180.000      15.16700    2     ; C20-C23-C35-C43, prebuilt X-ca-ca-X
   20      23      35      86         9       180.000      15.16700    2     ; C20-C23-C35-H86, prebuilt X-ca-ca-X
   20      24      34      42         9       180.000      15.16700    2     ; C20-C24-C34-C42, prebuilt X-ca-ca-X
   20      24      34      85         9       180.000      15.16700    2     ; C20-C24-C34-H85, prebuilt X-ca-ca-X
   20      24      36      44         9       180.000      15.16700    2     ; C20-C24-C36-C44, prebuilt X-ca-ca-X
   20      24      36      87         9       180.000      15.16700    2     ; C20-C24-C36-H87, prebuilt X-ca-ca-X
   20      25      38      45         9       180.000      15.16700    2     ; C20-C25-C38-C45, prebuilt X-ca-ca-X
   20      25      38      88         9       180.000      15.16700    2     ; C20-C25-C38-H88, prebuilt X-ca-ca-X
   20      25      39      46         9       180.000      15.16700    2     ; C20-C25-C39-C46, prebuilt X-ca-ca-X
   20      25      39      89         9       180.000      15.16700    2     ; C20-C25-C39-H89, prebuilt X-ca-ca-X
   21      10      18      65         9         0.000       0.00000    2     ; C21-N10-C18-H65, prebuilt X-c3-n-X
   22      10      18      65         9         0.000       0.00000    2     ; C22-N10-C18-H65, prebuilt X-c3-n-X
   22      10      21      28         9       180.000       6.90360    2     ; C22-N10-C21-C28, prebuilt X-n-cc-X
   22      10      21      68         9       180.000       6.90360    2     ; C22-N10-C21-H68, prebuilt X-n-cc-X
   22      12      37      28         9       180.000      19.87400    2     ; C22-N12-C37-C28, prebuilt X-cc-nc-X
   23      20      24      34         9         0.000       0.00000    2     ; C23-C20-C24-C34, prebuilt X-c3-ca-X
   23      20      24      36         9         0.000       0.00000    2     ; C23-C20-C24-C36, prebuilt X-c3-ca-X
   23      20      25      38         9         0.000       0.00000    2     ; C23-C20-C25-C38, prebuilt X-c3-ca-X
   23      20      25      39         9         0.000       0.00000    2     ; C23-C20-C25-C39, prebuilt X-c3-ca-X
   23      33      41      47         9       180.000      15.16700    2     ; C23-C33-C41-C47, prebuilt X-ca-ca-X
   23      33      41      92         9       180.000      15.16700    2     ; C23-C33-C41-H92, prebuilt X-ca-ca-X
   23      35      43      47         9       180.000      15.16700    2     ; C23-C35-C43-C47, prebuilt X-ca-ca-X
   23      35      43      94         9       180.000      15.16700    2     ; C23-C35-C43-H94, prebuilt X-ca-ca-X
   24      20      23      33         9         0.000       0.00000    2     ; C24-C20-C23-C33, prebuilt X-c3-ca-X
   24      20      23      35         9         0.000       0.00000    2     ; C24-C20-C23-C35, prebuilt X-c3-ca-X
   24      20      25      38         9         0.000       0.00000    2     ; C24-C20-C25-C38, prebuilt X-c3-ca-X
   24      20      25      39         9         0.000       0.00000    2     ; C24-C20-C25-C39, prebuilt X-c3-ca-X
   24      34      42      48         9       180.000      15.16700    2     ; C24-C34-C42-C48, prebuilt X-ca-ca-X
   24      34      42      93         9       180.000      15.16700    2     ; C24-C34-C42-H93, prebuilt X-ca-ca-X
   24      36      44      48         9       180.000      15.16700    2     ; C24-C36-C44-C48, prebuilt X-ca-ca-X
   24      36      44      95         9       180.000      15.16700    2     ; C24-C36-C44-H95, prebuilt X-ca-ca-X
   25      20      23      33         9         0.000       0.00000    2     ; C25-C20-C23-C33, prebuilt X-c3-ca-X
   25      20      23      35         9         0.000       0.00000    2     ; C25-C20-C23-C35, prebuilt X-c3-ca-X
   25      20      24      34         9         0.000       0.00000    2     ; C25-C20-C24-C34, prebuilt X-c3-ca-X
   25      20      24      36         9         0.000       0.00000    2     ; C25-C20-C24-C36, prebuilt X-c3-ca-X
   25      38      45      49         9       180.000      15.16700    2     ; C25-C38-C45-C49, prebuilt X-ca-ca-X
   25      38      45      96         9       180.000      15.16700    2     ; C25-C38-C45-H96, prebuilt X-ca-ca-X
   25      39      46      49         9       180.000      15.16700    2     ; C25-C39-C46-C49, prebuilt X-ca-ca-X
   25      39      46      97         9       180.000      15.16700    2     ; C25-C39-C46-H97, prebuilt X-ca-ca-X
   26      11      27      31         9         0.000       1.25520    3     ; C26-N11-C27-C31, prebuilt c3-c3-n3-c3
   26      11      27      31         9       180.000       2.00832    2     ; C26-N11-C27-C31, prebuilt c3-c3-n3-c3
   26      11      27      32         9         0.000       1.25520    3     ; C26-N11-C27-C32, prebuilt c3-c3-n3-c3
   26      11      27      32         9       180.000       2.00832    2     ; C26-N11-C27-C32, prebuilt c3-c3-n3-c3
   26      11      27      70         9         0.000       1.25520    3     ; C26-N11-C27-H70, prebuilt X-c3-n3-X
   27      11      26      29         9         0.000       1.25520    3     ; C27-N11-C26-C29, prebuilt c3-c3-n3-c3
   27      11      26      29         9       180.000       2.00832    2     ; C27-N11-C26-C29, prebuilt c3-c3-n3-c3
   27      11      26      30         9         0.000       1.25520    3     ; C27-N11-C26-C30, prebuilt c3-c3-n3-c3
   27      11      26      30         9       180.000       2.00832    2     ; C27-N11-C26-C30, prebuilt c3-c3-n3-c3
   27      11      26      69         9         0.000       1.25520    3     ; C27-N11-C26-H69, prebuilt X-c3-n3-X
   28      37      13      51         9       180.000       6.90360    2     ; C28-C37-N13-C51, prebuilt X-n-cc-X
   28      37      13      98         9       180.000       6.90360    2     ; C28-C37-N13-H98, prebuilt X-n-cc-X
   29      26      30      75         9         0.000       0.66944    3     ; C29-C26-C30-H75, prebuilt hc-c3-c3-c3
   29      26      30      76         9         0.000       0.66944    3     ; C29-C26-C30-H76, prebuilt hc-c3-c3-c3
   29      26      30      77         9         0.000       0.66944    3     ; C29-C26-C30-H77, prebuilt hc-c3-c3-c3
   30      26      29      72         9         0.000       0.66944    3     ; C30-C26-C29-H72, prebuilt hc-c3-c3-c3
   30      26      29      73         9         0.000       0.66944    3     ; C30-C26-C29-H73, prebuilt hc-c3-c3-c3
   30      26      29      74         9         0.000       0.66944    3     ; C30-C26-C29-H74, prebuilt hc-c3-c3-c3
   31      27      32      81         9         0.000       0.66944    3     ; C31-C27-C32-H81, prebuilt hc-c3-c3-c3
   31      27      32      82         9         0.000       0.66944    3     ; C31-C27-C32-H82, prebuilt hc-c3-c3-c3
   31      27      32      83         9         0.000       0.66944    3     ; C31-C27-C32-H83, prebuilt hc-c3-c3-c3
   32      27      31      78         9         0.000       0.66944    3     ; C32-C27-C31-H78, prebuilt hc-c3-c3-c3
   32      27      31      79         9         0.000       0.66944    3     ; C32-C27-C31-H79, prebuilt hc-c3-c3-c3
   32      27      31      80         9         0.000       0.66944    3     ; C32-C27-C31-H80, prebuilt hc-c3-c3-c3
   33      23      35      43         9       180.000      15.16700    2     ; C33-C23-C35-C43, prebuilt X-ca-ca-X
   33      23      35      86         9       180.000      15.16700    2     ; C33-C23-C35-H86, prebuilt X-ca-ca-X
   33      41      47      43         9       180.000      15.16700    2     ; C33-C41-C47-C43, prebuilt X-ca-ca-X
   34      24      36      44         9       180.000      15.16700    2     ; C34-C24-C36-C44, prebuilt X-ca-ca-X
   34      24      36      87         9       180.000      15.16700    2     ; C34-C24-C36-H87, prebuilt X-ca-ca-X
   34      42      48      44         9       180.000      15.16700    2     ; C34-C42-C48-C44, prebuilt X-ca-ca-X
   35      23      33      41         9       180.000      15.16700    2     ; C35-C23-C33-C41, prebuilt X-ca-ca-X
   35      23      33      84         9       180.000      15.16700    2     ; C35-C23-C33-H84, prebuilt X-ca-ca-X
   35      43      47      41         9       180.000      15.16700    2     ; C35-C43-C47-C41, prebuilt X-ca-ca-X
   36      24      34      42         9       180.000      15.16700    2     ; C36-C24-C34-C42, prebuilt X-ca-ca-X
   36      24      34      85         9       180.000      15.16700    2     ; C36-C24-C34-H85, prebuilt X-ca-ca-X
   36      44      48      42         9       180.000      15.16700    2     ; C36-C44-C48-C42, prebuilt X-ca-ca-X
   37      13      51      53         9       180.000      10.46000    2     ; C37-N13-C51-C53, prebuilt X-c-n-X
   37      28      21      68         9       180.000      16.73600    2     ; C37-C28-C21-H68, prebuilt X-cc-cc-X
   38      25      39      46         9       180.000      15.16700    2     ; C38-C25-C39-C46, prebuilt X-ca-ca-X
   38      25      39      89         9       180.000      15.16700    2     ; C38-C25-C39-H89, prebuilt X-ca-ca-X
   38      45      49      46         9       180.000      15.16700    2     ; C38-C45-C49-C46, prebuilt X-ca-ca-X
   38      45      49      99         9       180.000      15.16700    2     ; C38-C45-C49-H99, prebuilt X-ca-ca-X
   39      25      38      45         9       180.000      15.16700    2     ; C39-C25-C38-C45, prebuilt X-ca-ca-X
   39      25      38      88         9       180.000      15.16700    2     ; C39-C25-C38-H88, prebuilt X-ca-ca-X
   39      46      49      45         9       180.000      15.16700    2     ; C39-C46-C49-C45, prebuilt X-ca-ca-X
   39      46      49      99         9       180.000      15.16700    2     ; C39-C46-C49-H99, prebuilt X-ca-ca-X
   41      47       7      54         9       180.000       3.76560    2     ; C41-C47-O7-C54, prebuilt X-ca-os-X
   41      47      43      94         9       180.000      15.16700    2     ; C41-C47-C43-H94, prebuilt X-ca-ca-X
   42      48       8      55         9       180.000       3.76560    2     ; C42-C48-O8-C55, prebuilt X-ca-os-X
   42      48      44      95         9       180.000      15.16700    2     ; C42-C48-C44-H95, prebuilt X-ca-ca-X
   43      47       7      54         9       180.000       3.76560    2     ; C43-C47-O7-C54, prebuilt X-ca-os-X
   43      47      41      92         9       180.000      15.16700    2     ; C43-C47-C41-H92, prebuilt X-ca-ca-X
   44      48       8      55         9       180.000       3.76560    2     ; C44-C48-O8-C55, prebuilt X-ca-os-X
   44      48      42      93         9       180.000      15.16700    2     ; C44-C48-C42-H93, prebuilt X-ca-ca-X
   45      49      46      97         9       180.000      15.16700    2     ; C45-C49-C46-H97, prebuilt X-ca-ca-X
   46      49      45      96         9       180.000      15.16700    2     ; C46-C49-C45-H96, prebuilt X-ca-ca-X
   47       7      54     102         9         0.000       1.60387    3     ; C47-O7-C54-H102, prebuilt X-c3-os-X
   47       7      54     103         9         0.000       1.60387    3     ; C47-O7-C54-H103, prebuilt X-c3-os-X
   47       7      54     104         9         0.000       1.60387    3     ; C47-O7-C54-H104, prebuilt X-c3-os-X
   47      41      33      84         9       180.000      15.16700    2     ; C47-C41-C33-H84, prebuilt X-ca-ca-X
   47      43      35      86         9       180.000      15.16700    2     ; C47-C43-C35-H86, prebuilt X-ca-ca-X
   48       8      55     105         9         0.000       1.60387    3     ; C48-O8-C55-H105, prebuilt X-c3-os-X
   48       8      55     106         9         0.000       1.60387    3     ; C48-O8-C55-H106, prebuilt X-c3-os-X
   48       8      55     107         9         0.000       1.60387    3     ; C48-O8-C55-H107, prebuilt X-c3-os-X
   48      42      34      85         9       180.000      15.16700    2     ; C48-C42-C34-H85, prebuilt X-ca-ca-X
   48      44      36      87         9       180.000      15.16700    2     ; C48-C44-C36-H87, prebuilt X-ca-ca-X
   49      45      38      88         9       180.000      15.16700    2     ; C49-C45-C38-H88, prebuilt X-ca-ca-X
   49      46      39      89         9       180.000      15.16700    2     ; C49-C46-C39-H89, prebuilt X-ca-ca-X
   51      53      56      58         9       180.000      15.16700    2     ; C51-C53-C56-C58, prebuilt X-ca-ca-X
   51      53      56     108         9       180.000      15.16700    2     ; C51-C53-C56-H108, prebuilt X-ca-ca-X
   51      53      57      59         9       180.000      15.16700    2     ; C51-C53-C57-C59, prebuilt X-ca-ca-X
   51      53      57     109         9       180.000      15.16700    2     ; C51-C53-C57-H109, prebuilt X-ca-ca-X
   52      50      40      90         9         0.000       0.65084    3     ; C52-C50-C40-H90, prebuilt X-c3-c3-X
   52      50      40      91         9         0.000       0.65084    3     ; C52-C50-C40-H91, prebuilt X-c3-c3-X
   53      51      13      98         9       180.000      10.46000    2     ; C53-C51-N13-H98, prebuilt X-c-n-X
   53      56      58      60         9       180.000      15.16700    2     ; C53-C56-C58-C60, prebuilt X-ca-ca-X
   53      56      58     110         9       180.000      15.16700    2     ; C53-C56-C58-H110, prebuilt X-ca-ca-X
   53      57      59      60         9       180.000      15.16700    2     ; C53-C57-C59-C60, prebuilt X-ca-ca-X
   53      57      59     111         9       180.000      15.16700    2     ; C53-C57-C59-H111, prebuilt X-ca-ca-X
   56      53      57      59         9       180.000      15.16700    2     ; C56-C53-C57-C59, prebuilt X-ca-ca-X
   56      53      57     109         9       180.000      15.16700    2     ; C56-C53-C57-H109, prebuilt X-ca-ca-X
   56      58      60      59         9       180.000      15.16700    2     ; C56-C58-C60-C59, prebuilt X-ca-ca-X
   56      58      60     112         9       180.000      15.16700    2     ; C56-C58-C60-H112, prebuilt X-ca-ca-X
   57      53      56      58         9       180.000      15.16700    2     ; C57-C53-C56-C58, prebuilt X-ca-ca-X
   57      53      56     108         9       180.000      15.16700    2     ; C57-C53-C56-H108, prebuilt X-ca-ca-X
   57      59      60      58         9       180.000      15.16700    2     ; C57-C59-C60-C58, prebuilt X-ca-ca-X
   57      59      60     112         9       180.000      15.16700    2     ; C57-C59-C60-H112, prebuilt X-ca-ca-X
   58      60      59     111         9       180.000      15.16700    2     ; C58-C60-C59-H111, prebuilt X-ca-ca-X
   59      60      58     110         9       180.000      15.16700    2     ; C59-C60-C58-H110, prebuilt X-ca-ca-X
   60      58      56     108         9       180.000      15.16700    2     ; C60-C58-C56-H108, prebuilt X-ca-ca-X
   60      59      57     109         9       180.000      15.16700    2     ; C60-C59-C57-H109, prebuilt X-ca-ca-X
   61      15      16      62         9         0.000       0.65084    3     ; H61-C15-C16-H62, prebuilt X-c3-c3-X
   61      15      17      63         9         0.000       0.65084    3     ; H61-C15-C17-H63, prebuilt X-c3-c3-X
   61      15      17      64         9         0.000       0.65084    3     ; H61-C15-C17-H64, prebuilt X-c3-c3-X
   62      16      19      66         9         0.000       0.65084    3     ; H62-C16-C19-H66, prebuilt X-c3-c3-X
   62      16      19      67         9         0.000       0.65084    3     ; H62-C16-C19-H67, prebuilt X-c3-c3-X
   63      17      18      65         9         0.000       0.65084    3     ; H63-C17-C18-H65, prebuilt X-c3-c3-X
   64      17      18      65         9         0.000       0.65084    3     ; H64-C17-C18-H65, prebuilt X-c3-c3-X
   68      21      28      71         9       180.000      16.73600    2     ; H68-C21-C28-H71, prebuilt X-cc-cc-X
   69      26      29      72         9         0.000       0.65084    3     ; H69-C26-C29-H72, prebuilt X-c3-c3-X
   69      26      29      73         9         0.000       0.65084    3     ; H69-C26-C29-H73, prebuilt X-c3-c3-X
   69      26      29      74         9         0.000       0.65084    3     ; H69-C26-C29-H74, prebuilt X-c3-c3-X
   69      26      30      75         9         0.000       0.65084    3     ; H69-C26-C30-H75, prebuilt X-c3-c3-X
   69      26      30      76         9         0.000       0.65084    3     ; H69-C26-C30-H76, prebuilt X-c3-c3-X
   69      26      30      77         9         0.000       0.65084    3     ; H69-C26-C30-H77, prebuilt X-c3-c3-X
   70      27      31      78         9         0.000       0.65084    3     ; H70-C27-C31-H78, prebuilt X-c3-c3-X
   70      27      31      79         9         0.000       0.65084    3     ; H70-C27-C31-H79, prebuilt X-c3-c3-X
   70      27      31      80         9         0.000       0.65084    3     ; H70-C27-C31-H80, prebuilt X-c3-c3-X
   70      27      32      81         9         0.000       0.65084    3     ; H70-C27-C32-H81, prebuilt X-c3-c3-X
   70      27      32      82         9         0.000       0.65084    3     ; H70-C27-C32-H82, prebuilt X-c3-c3-X
   70      27      32      83         9         0.000       0.65084    3     ; H70-C27-C32-H83, prebuilt X-c3-c3-X
   84      33      41      92         9       180.000      15.16700    2     ; H84-C33-C41-H92, prebuilt X-ca-ca-X
   85      34      42      93         9       180.000      15.16700    2     ; H85-C34-C42-H93, prebuilt X-ca-ca-X
   86      35      43      94         9       180.000      15.16700    2     ; H86-C35-C43-H94, prebuilt X-ca-ca-X
   87      36      44      95         9       180.000      15.16700    2     ; H87-C36-C44-H95, prebuilt X-ca-ca-X
   88      38      45      96         9       180.000      15.16700    2     ; H88-C38-C45-H96, prebuilt X-ca-ca-X
   89      39      46      97         9       180.000      15.16700    2     ; H89-C39-C46-H97, prebuilt X-ca-ca-X
   90      40      50     100         9         0.000       0.65084    3     ; H90-C40-C50-H100, prebuilt X-c3-c3-X
   90      40      50     101         9         0.000       0.65084    3     ; H90-C40-C50-H101, prebuilt X-c3-c3-X
   91      40      50     100         9         0.000       0.65084    3     ; H91-C40-C50-H100, prebuilt X-c3-c3-X
   91      40      50     101         9         0.000       0.65084    3     ; H91-C40-C50-H101, prebuilt X-c3-c3-X
   96      45      49      99         9       180.000      15.16700    2     ; H96-C45-C49-H99, prebuilt X-ca-ca-X
   97      46      49      99         9       180.000      15.16700    2     ; H97-C46-C49-H99, prebuilt X-ca-ca-X
  108      56      58     110         9       180.000      15.16700    2     ; H108-C56-C58-H110, prebuilt X-ca-ca-X
  109      57      59     111         9       180.000      15.16700    2     ; H109-C57-C59-H111, prebuilt X-ca-ca-X
  110      58      60     112         9       180.000      15.16700    2     ; H110-C58-C60-H112, prebuilt X-ca-ca-X
  111      59      60     112         9       180.000      15.16700    2     ; H111-C59-C60-H112, prebuilt X-ca-ca-X

[ pairs ] ; Yielded based on rotatable dihedrals
; atom_i  atom_j  functype
    1      16         1     ; P1-O3-C15-C16
    1      17         1     ; P1-O3-C15-C17
    1      61         1     ; P1-O3-C15-H61
    1      50         1     ; P1-O5-C40-C50
    1      90         1     ; P1-O5-C40-H90
    1      91         1     ; P1-O5-C40-H91
    1      29         1     ; P1-N11-C26-C29
    1      30         1     ; P1-N11-C26-C30
    1      69         1     ; P1-N11-C26-H69
    1      31         1     ; P1-N11-C27-C31
    1      32         1     ; P1-N11-C27-C32
    1      70         1     ; P1-N11-C27-H70
    2       3         1     ; O2-C16-C15-O3
    2      61         1     ; O2-C16-C15-H61
    2       4         1     ; O2-C16-C19-O4
    2      66         1     ; O2-C16-C19-H66
    2      67         1     ; O2-C16-C19-H67
    2      21         1     ; O2-C18-N10-C21
    2      22         1     ; O2-C18-N10-C22
    2      63         1     ; O2-C18-C17-H63
    2      64         1     ; O2-C18-C17-H64
    3      40         1     ; O3-P1-O5-C40
    3      26         1     ; O3-P1-N11-C26
    3      27         1     ; O3-P1-N11-C27
    3      19         1     ; O3-C15-C16-C19
    3      62         1     ; O3-C15-C16-H62
    3      18         1     ; O3-C15-C17-C18
    3      63         1     ; O3-C15-C17-H63
    3      64         1     ; O3-C15-C17-H64
    4      15         1     ; O4-C19-C16-C15
    4      62         1     ; O4-C19-C16-H62
    4      33         1     ; O4-C20-C23-C33
    4      35         1     ; O4-C20-C23-C35
    4      34         1     ; O4-C20-C24-C34
    4      36         1     ; O4-C20-C24-C36
    4      38         1     ; O4-C20-C25-C38
    4      39         1     ; O4-C20-C25-C39
    5      15         1     ; O5-P1-O3-C15
    5      26         1     ; O5-P1-N11-C26
    5      27         1     ; O5-P1-N11-C27
    5      52         1     ; O5-C40-C50-C52
    5     100         1     ; O5-C40-C50-H100
    5     101         1     ; O5-C40-C50-H101
    6      18         1     ; O6-C22-N10-C18
    6      21         1     ; O6-C22-N10-C21
    6      37         1     ; O6-C22-N12-C37
    7      33         1     ; O7-C47-C41-C33
    7      92         1     ; O7-C47-C41-H92
    7      35         1     ; O7-C47-C43-C35
    7      94         1     ; O7-C47-C43-H94
    8      34         1     ; O8-C48-C42-C34
    8      93         1     ; O8-C48-C42-H93
    8      36         1     ; O8-C48-C44-C36
    8      95         1     ; O8-C48-C44-H95
    9      37         1     ; O9-C51-N13-C37
    9      98         1     ; O9-C51-N13-H98
    9      56         1     ; O9-C51-C53-C56
    9      57         1     ; O9-C51-C53-C57
   10      16         1     ; N10-C18-O2-C16
   10      15         1     ; N10-C18-C17-C15
   10      63         1     ; N10-C18-C17-H63
   10      64         1     ; N10-C18-C17-H64
   10      37         1     ; N10-C21-C28-C37
   10      71         1     ; N10-C21-C28-H71
   11      15         1     ; N11-P1-O3-C15
   11      40         1     ; N11-P1-O5-C40
   11      72         1     ; N11-C26-C29-H72
   11      73         1     ; N11-C26-C29-H73
   11      74         1     ; N11-C26-C29-H74
   11      75         1     ; N11-C26-C30-H75
   11      76         1     ; N11-C26-C30-H76
   11      77         1     ; N11-C26-C30-H77
   11      78         1     ; N11-C27-C31-H78
   11      79         1     ; N11-C27-C31-H79
   11      80         1     ; N11-C27-C31-H80
   11      81         1     ; N11-C27-C32-H81
   11      82         1     ; N11-C27-C32-H82
   11      83         1     ; N11-C27-C32-H83
   12      18         1     ; N12-C22-N10-C18
   12      21         1     ; N12-C22-N10-C21
   12      51         1     ; N12-C37-N13-C51
   12      98         1     ; N12-C37-N13-H98
   12      71         1     ; N12-C37-C28-H71
   13      22         1     ; N13-C37-N12-C22
   13      21         1     ; N13-C37-C28-C21
   13      71         1     ; N13-C37-C28-H71
   13      56         1     ; N13-C51-C53-C56
   13      57         1     ; N13-C51-C53-C57
   15      66         1     ; C15-C16-C19-H66
   15      67         1     ; C15-C16-C19-H67
   15      65         1     ; C15-C17-C18-H65
   16      65         1     ; C16-O2-C18-H65
   16      63         1     ; C16-C15-C17-H63
   16      64         1     ; C16-C15-C17-H64
   16      20         1     ; C16-C19-O4-C20
   17      19         1     ; C17-C15-C16-C19
   17      62         1     ; C17-C15-C16-H62
   17      21         1     ; C17-C18-N10-C21
   17      22         1     ; C17-C18-N10-C22
   18      19         1     ; C18-O2-C16-C19
   18      62         1     ; C18-O2-C16-H62
   18      28         1     ; C18-N10-C21-C28
   18      68         1     ; C18-N10-C21-H68
   18      61         1     ; C18-C17-C15-H61
   19      23         1     ; C19-O4-C20-C23
   19      24         1     ; C19-O4-C20-C24
   19      25         1     ; C19-O4-C20-C25
   19      61         1     ; C19-C16-C15-H61
   20      66         1     ; C20-O4-C19-H66
   20      67         1     ; C20-O4-C19-H67
   20      41         1     ; C20-C23-C33-C41
   20      84         1     ; C20-C23-C33-H84
   20      43         1     ; C20-C23-C35-C43
   20      86         1     ; C20-C23-C35-H86
   20      42         1     ; C20-C24-C34-C42
   20      85         1     ; C20-C24-C34-H85
   20      44         1     ; C20-C24-C36-C44
   20      87         1     ; C20-C24-C36-H87
   20      45         1     ; C20-C25-C38-C45
   20      88         1     ; C20-C25-C38-H88
   20      46         1     ; C20-C25-C39-C46
   20      89         1     ; C20-C25-C39-H89
   21      65         1     ; C21-N10-C18-H65
   22      65         1     ; C22-N10-C18-H65
   22      28         1     ; C22-N10-C21-C28
   22      68         1     ; C22-N10-C21-H68
   23      34         1     ; C23-C20-C24-C34
   23      36         1     ; C23-C20-C24-C36
   23      38         1     ; C23-C20-C25-C38
   23      39         1     ; C23-C20-C25-C39
   23      47         1     ; C23-C33-C41-C47
   23      92         1     ; C23-C33-C41-H92
   23      94         1     ; C23-C35-C43-H94
   24      33         1     ; C24-C20-C23-C33
   24      35         1     ; C24-C20-C23-C35
   24      38         1     ; C24-C20-C25-C38
   24      39         1     ; C24-C20-C25-C39
   24      48         1     ; C24-C34-C42-C48
   24      93         1     ; C24-C34-C42-H93
   24      95         1     ; C24-C36-C44-H95
   25      33         1     ; C25-C20-C23-C33
   25      35         1     ; C25-C20-C23-C35
   25      34         1     ; C25-C20-C24-C34
   25      36         1     ; C25-C20-C24-C36
   25      49         1     ; C25-C38-C45-C49
   25      96         1     ; C25-C38-C45-H96
   25      97         1     ; C25-C39-C46-H97
   26      31         1     ; C26-N11-C27-C31
   26      32         1     ; C26-N11-C27-C32
   26      70         1     ; C26-N11-C27-H70
   27      29         1     ; C27-N11-C26-C29
   27      30         1     ; C27-N11-C26-C30
   27      69         1     ; C27-N11-C26-H69
   28      51         1     ; C28-C37-N13-C51
   28      98         1     ; C28-C37-N13-H98
   29      75         1     ; C29-C26-C30-H75
   29      76         1     ; C29-C26-C30-H76
   29      77         1     ; C29-C26-C30-H77
   30      72         1     ; C30-C26-C29-H72
   30      73         1     ; C30-C26-C29-H73
   30      74         1     ; C30-C26-C29-H74
   31      81         1     ; C31-C27-C32-H81
   31      82         1     ; C31-C27-C32-H82
   31      83         1     ; C31-C27-C32-H83
   32      78         1     ; C32-C27-C31-H78
   32      79         1     ; C32-C27-C31-H79
   32      80         1     ; C32-C27-C31-H80
   33      43         1     ; C33-C23-C35-C43
   33      86         1     ; C33-C23-C35-H86
   34      44         1     ; C34-C24-C36-C44
   34      87         1     ; C34-C24-C36-H87
   35      41         1     ; C35-C23-C33-C41
   35      84         1     ; C35-C23-C33-H84
   36      42         1     ; C36-C24-C34-C42
   36      85         1     ; C36-C24-C34-H85
   37      53         1     ; C37-N13-C51-C53
   37      68         1     ; C37-C28-C21-H68
   38      46         1     ; C38-C25-C39-C46
   38      89         1     ; C38-C25-C39-H89
   38      99         1     ; C38-C45-C49-H99
   39      45         1     ; C39-C25-C38-C45
   39      88         1     ; C39-C25-C38-H88
   39      99         1     ; C39-C46-C49-H99
   41      54         1     ; C41-C47-O7-C54
   41      94         1     ; C41-C47-C43-H94
   42      55         1     ; C42-C48-O8-C55
   42      95         1     ; C42-C48-C44-H95
   43      54         1     ; C43-C47-O7-C54
   43      92         1     ; C43-C47-C41-H92
   44      55         1     ; C44-C48-O8-C55
   44      93         1     ; C44-C48-C42-H93
   45      97         1     ; C45-C49-C46-H97
   46      96         1     ; C46-C49-C45-H96
   47     102         1     ; C47-O7-C54-H102
   47     103         1     ; C47-O7-C54-H103
   47     104         1     ; C47-O7-C54-H104
   47      84         1     ; C47-C41-C33-H84
   47      86         1     ; C47-C43-C35-H86
   48     105         1     ; C48-O8-C55-H105
   48     106         1     ; C48-O8-C55-H106
   48     107         1     ; C48-O8-C55-H107
   48      85         1     ; C48-C42-C34-H85
   48      87         1     ; C48-C44-C36-H87
   49      88         1     ; C49-C45-C38-H88
   49      89         1     ; C49-C46-C39-H89
   51      58         1     ; C51-C53-C56-C58
   51     108         1     ; C51-C53-C56-H108
   51      59         1     ; C51-C53-C57-C59
   51     109         1     ; C51-C53-C57-H109
   52      90         1     ; C52-C50-C40-H90
   52      91         1     ; C52-C50-C40-H91
   53      98         1     ; C53-C51-N13-H98
   53      60         1     ; C53-C56-C58-C60
   53     110         1     ; C53-C56-C58-H110
   53     111         1     ; C53-C57-C59-H111
   56      59         1     ; C56-C53-C57-C59
   56     109         1     ; C56-C53-C57-H109
   56     112         1     ; C56-C58-C60-H112
   57      58         1     ; C57-C53-C56-C58
   57     108         1     ; C57-C53-C56-H108
   57     112         1     ; C57-C59-C60-H112
   58     111         1     ; C58-C60-C59-H111
   59     110         1     ; C59-C60-C58-H110
   60     108         1     ; C60-C58-C56-H108
   60     109         1     ; C60-C59-C57-H109
   61      62         1     ; H61-C15-C16-H62
   61      63         1     ; H61-C15-C17-H63
   61      64         1     ; H61-C15-C17-H64
   62      66         1     ; H62-C16-C19-H66
   62      67         1     ; H62-C16-C19-H67
   63      65         1     ; H63-C17-C18-H65
   64      65         1     ; H64-C17-C18-H65
   68      71         1     ; H68-C21-C28-H71
   69      72         1     ; H69-C26-C29-H72
   69      73         1     ; H69-C26-C29-H73
   69      74         1     ; H69-C26-C29-H74
   69      75         1     ; H69-C26-C30-H75
   69      76         1     ; H69-C26-C30-H76
   69      77         1     ; H69-C26-C30-H77
   70      78         1     ; H70-C27-C31-H78
   70      79         1     ; H70-C27-C31-H79
   70      80         1     ; H70-C27-C31-H80
   70      81         1     ; H70-C27-C32-H81
   70      82         1     ; H70-C27-C32-H82
   70      83         1     ; H70-C27-C32-H83
   84      92         1     ; H84-C33-C41-H92
   85      93         1     ; H85-C34-C42-H93
   86      94         1     ; H86-C35-C43-H94
   87      95         1     ; H87-C36-C44-H95
   88      96         1     ; H88-C38-C45-H96
   89      97         1     ; H89-C39-C46-H97
   90     100         1     ; H90-C40-C50-H100
   90     101         1     ; H90-C40-C50-H101
   91     100         1     ; H91-C40-C50-H100
   91     101         1     ; H91-C40-C50-H101
   96      99         1     ; H96-C45-C49-H99
   97      99         1     ; H97-C46-C49-H99
  108     110         1     ; H108-C56-C58-H110
  109     111         1     ; H109-C57-C59-H111
  110     112         1     ; H110-C58-C60-H112
  111     112         1     ; H111-C59-C60-H112
 
[ dihedrals ] ; impropers
; atom_i  atom_j  atom_k  atom_l  functype  phase (Deg.)  kd (kJ/mol)  pn
   18      21      10      22         4       180.000       4.60240    2     ; C18-C21-N10-C22, guess (same as GAFF X -X -ca-ha)
   37      51      13      98         4       180.000       4.60240    2     ; C37-C51-N13-H98, prebuilt X-X-n-hn
    6      10      22      12         4       180.000      43.93200    2     ; O6-N10-C22-N12, prebuilt X-X-c-o
   20      33      23      35         4       180.000       4.60240    2     ; C20-C33-C23-C35, prebuilt ca-ca-ca-c3
   20      34      24      36         4       180.000       4.60240    2     ; C20-C34-C24-C36, prebuilt ca-ca-ca-c3
   20      38      25      39         4       180.000       4.60240    2     ; C20-C38-C25-C39, prebuilt ca-ca-ca-c3
   23      41      33      84         4       180.000       4.60240    2     ; C23-C41-C33-H84, prebuilt X-X-ca-ha
   24      42      34      85         4       180.000       4.60240    2     ; C24-C42-C34-H85, prebuilt X-X-ca-ha
   23      43      35      86         4       180.000       4.60240    2     ; C23-C43-C35-H86, prebuilt X-X-ca-ha
   24      44      36      87         4       180.000       4.60240    2     ; C24-C44-C36-H87, prebuilt X-X-ca-ha
   25      45      38      88         4       180.000       4.60240    2     ; C25-C45-C38-H88, prebuilt X-X-ca-ha
   25      46      39      89         4       180.000       4.60240    2     ; C25-C46-C39-H89, prebuilt X-X-ca-ha
   33      47      41      92         4       180.000       4.60240    2     ; C33-C47-C41-H92, prebuilt X-X-ca-ha
   34      48      42      93         4       180.000       4.60240    2     ; C34-C48-C42-H93, prebuilt X-X-ca-ha
   35      47      43      94         4       180.000       4.60240    2     ; C35-C47-C43-H94, prebuilt X-X-ca-ha
   36      48      44      95         4       180.000       4.60240    2     ; C36-C48-C44-H95, prebuilt X-X-ca-ha
   38      49      45      96         4       180.000       4.60240    2     ; C38-C49-C45-H96, prebuilt X-X-ca-ha
   39      49      46      97         4       180.000       4.60240    2     ; C39-C49-C46-H97, prebuilt X-X-ca-ha
    7      41      47      43         4       180.000       4.60240    2     ; O7-C41-C47-C43, guess (same as GAFF X -X -ca-ha)
    8      42      48      44         4       180.000       4.60240    2     ; O8-C42-C48-C44, guess (same as GAFF X -X -ca-ha)
   45      46      49      99         4       180.000       4.60240    2     ; C45-C46-C49-H99, prebuilt X-X-ca-ha
    9      13      51      53         4       180.000      43.93200    2     ; O9-N13-C51-C53, prebuilt X-X-c-o
   51      56      53      57         4       180.000       4.60240    2     ; C51-C56-C53-C57, guess (same as GAFF X -X -ca-ha)
   53      58      56     108         4       180.000       4.60240    2     ; C53-C58-C56-H108, prebuilt X-X-ca-ha
   53      59      57     109         4       180.000       4.60240    2     ; C53-C59-C57-H109, prebuilt X-X-ca-ha
   56      60      58     110         4       180.000       4.60240    2     ; C56-C60-C58-H110, prebuilt X-X-ca-ha
   57      60      59     111         4       180.000       4.60240    2     ; C57-C60-C59-H111, prebuilt X-X-ca-ha
   58      59      60     112         4       180.000       4.60240    2     ; C58-C59-C60-H112, prebuilt X-X-ca-ha
