[ defaults ]
;nbfunc comb-rule gen-pairs fudgeLJ fudgeQQ
1 2 yes 0.5 0.8333

[ atomtypes ]
; name mass charge ptype sigma (nm) epsilon (kJ/mol)
B 214.201 0.000000 A 0.542 1
S 83.109 0.000000 A 0.302 1
P 217.226 0.000000 A 0.584 1
D 319.375 0.000000 A 0.732 1
W 72 0.000000 A 0.382 4

#include "CG_C2.itp"
#include "CG_water.itp"

[ system ]
CG_C2 in water

[ molecules ]
; Molecule nmols
CG_C2 1

W  849
